 Gaussian 16, Revision C.01,
 Gaussian 16:  ES64L-G16RevC.01  3-Jul-2019

 ----------------------------------------------------------------------
 #P M062X/Def2TZVPP Symm(None) scf(xqc) pop(None) opt(NoFreeze,TS,CalcA
 ll,NoEigentest,MaxCycle=999)
 ----------------------------------------------------------------------

 ------------------------------
 Gaussian input prepared by ASE
 ------------------------------
 Symbolic Z-matrix:
 Charge =  0 Multiplicity = 1

 SCF Done:  E(RM062X) =  -1199.54636931     A.U. after   20 cycles
 SCF Done:  E(RM062X) =  -1199.65402489     A.U. after   14 cycles
 SCF Done:  E(RM062X) =  -1199.72853096     A.U. after   14 cycles
 SCF Done:  E(RM062X) =  -1199.75909460     A.U. after   14 cycles
 SCF Done:  E(RM062X) =  -1199.76311956     A.U. after   14 cycles
 SCF Done:  E(RM062X) =  -1199.76018963     A.U. after   15 cycles
 SCF Done:  E(RM062X) =  -1199.76244313     A.U. after   16 cycles
 SCF Done:  E(RM062X) =  -1199.76975470     A.U. after   14 cycles
 SCF Done:  E(RM062X) =  -1199.77462059     A.U. after   14 cycles
 SCF Done:  E(RM062X) =  -1199.77686183     A.U. after   14 cycles
 SCF Done:  E(RM062X) =  -1199.77760677     A.U. after   13 cycles
 SCF Done:  E(RM062X) =  -1199.77769713     A.U. after   12 cycles
 SCF Done:  E(RM062X) =  -1199.77769916     A.U. after   10 cycles

 Isotropic polarizability for W=    0.000000       74.65 Bohr**3.
 End of Minotr F.D. properties file   721 does not exist.

 Optimization completed on the basis of negligible forces.
    -- Stationary point found.

                          Input orientation:
 ---------------------------------------------------------------------
 Center     Atomic      Atomic             Coordinates (Angstroms)
 Number     Number       Type             X           Y           Z
 ---------------------------------------------------------------------
      1          6           0       -0.297468   -1.283107    0.262053
      2          6           0       -0.479019    0.103086    0.127273
      3          9           0       -0.551215    0.653235   -1.019184
      4          9           0       -0.531162    0.872399    1.137308
      5         16           0        2.001243   -0.239226    0.162433
      6          8           0        2.482857   -0.441236    1.495662
      7          8           0        2.595175   -0.923250   -0.957906
      8          8           0        2.171420    1.338602   -0.141224
      9          9           0       -0.189525   -2.038386   -0.749449
     10          9           0       -0.171962   -1.829088    1.397553
     11          9           0       -2.082172   -0.771122    0.225350
     12          1           0        2.499766    1.437683   -1.045683
 ---------------------------------------------------------------------

 ******    1 imaginary frequencies (negative Signs) ******

                      1                      2                      3
                      A                      A                      A
 Frequencies --  -1000.2903                22.2834                90.2321
 Red. masses --     12.3309                12.3204                14.6837
 Frc consts  --      7.2694                 0.0036                 0.0704
 IR Inten    --     12.4619                 2.3117                17.2415

                      4                      5                      6
                      A                      A                      A
 Frequencies --     93.6841               128.5387               165.7115
 Red. masses --     15.5939                14.3048                14.8657
 Frc consts  --      0.0806                 0.1393                 0.2405
 IR Inten    --      3.5141                 3.7857                 1.6620

                      7                      8                      9
                      A                      A                      A
 Frequencies --    175.7139               234.1005               247.9669
 Red. masses --     14.2350                15.8926                16.1030
 Frc consts  --      0.2590                 0.5132                 0.5834
 IR Inten    --     44.1249                 1.0184                 2.3258

                     10                     11                     12
                      A                      A                      A
 Frequencies --    288.6174               314.8424               364.6441
 Red. masses --      1.4207                15.1438                10.8275
 Frc consts  --      0.0697                 0.8844                 0.8482
 IR Inten    --     23.4586                12.7031                15.0279

                     13                     14                     15
                      A                      A                      A
 Frequencies --    394.7863               416.2094               432.6751
 Red. masses --     15.9354                17.3348                 3.7521
 Frc consts  --      1.4633                 1.7693                 0.4139
 IR Inten    --    144.8875               140.0754                25.1605

                     16                     17                     18
                      A                      A                      A
 Frequencies --    472.5386               552.2551               566.5573
 Red. masses --     10.7939                17.2613                16.3678
 Frc consts  --      1.4200                 3.1017                 3.0955
 IR Inten    --     18.9784                 0.2208               678.7979

                     19                     20                     21
                      A                      A                      A
 Frequencies --    626.3949               698.5604               827.3611
 Red. masses --     16.7719                13.1883                17.5891
 Frc consts  --      3.8773                 3.7918                 7.0939
 IR Inten    --     27.1485               634.6388                93.0931

                     22                     23                     24
                      A                      A                      A
 Frequencies --    852.9045              1112.5571              1186.7625
 Red. masses --     18.0450                 1.2478                10.4706
 Frc consts  --      7.7341                 0.9100                 8.6886
 IR Inten    --     40.3976                53.0527               139.7019

                     25                     26                     27
                      A                      A                      A
 Frequencies --   1267.3364              1397.5862              1523.2628
 Red. masses --     14.4051                13.5318                13.3823
 Frc consts  --     13.6317                15.5726                18.2950
 IR Inten    --    447.4807               161.4098               395.7752

                     28                     29                     30
                      A                      A                      A
 Frequencies --   1546.5122              1748.3938              3816.2849
 Red. masses --     13.1517                12.3046                 1.0657
 Frc consts  --     18.5327                22.1614                 9.1445
 IR Inten    --    120.6682               206.5125               180.6191

 - Thermochemistry -
 -------------------
 Temperature   298.150 Kelvin.  Pressure   1.00000 Atm.
 Atom     1 has atomic number  6 and mass  12.00000

 Molecular mass:   199.95666 amu.
 Principal axes and moments of inertia in atomic units:
                           1         2         3
     Eigenvalues --  1225.231652177.288252403.57411
           X            0.97812  -0.20788   0.00776
           Y            0.20556   0.97160   0.11721
           Z           -0.03191  -0.11305   0.99308
 This molecule is an asymmetric top.
 Rotational symmetry number  1.
 Warning -- assumption of classical behavior for rotation
           may cause significant error
 Rotational temperatures (Kelvin)      0.07069     0.03978     0.03604
 Rotational constants (GHZ):           1.47298     0.82889     0.75086
    1 imaginary frequencies ignored.
 Zero-point vibrational energy     128989.0 (Joules/Mol)
                                   30.82911 (Kcal/Mol)
 Warning -- explicit consideration of  17 degrees of freedom as
           vibrations may cause significant error
 Vibrational temperatures:     32.06   129.82   134.79   184.94   238.42
          (Kelvin)            252.81   336.82   356.77   415.26   452.99
                              524.64   568.01   598.83   622.52   679.88
                              794.57   815.15   901.24  1005.07  1190.39
                             1227.14  1600.72  1707.49  1823.41  2010.81
                             2191.64  2225.09  2515.55  5490.78

 Zero-point correction=                           0.049129 (Hartree/Particle)
 Thermal correction to Energy=                    0.060401
 Thermal correction to Enthalpy=                  0.061345
 Thermal correction to Gibbs Free Energy=         0.010610
 Sum of electronic and zero-point Energies=          -1199.728570
 Sum of electronic and thermal Energies=             -1199.717298
 Sum of electronic and thermal Enthalpies=           -1199.716354
 Sum of electronic and thermal Free Energies=        -1199.767089

                     E (Thermal)             CV                S
                      KCal/Mol        Cal/Mol-Kelvin    Cal/Mol-Kelvin
 Total                   37.902             37.744            106.781
 Electronic               0.000              0.000              0.000
 Translational            0.889              2.981             41.783
 Rotational               0.889              2.981             30.240
 Vibrational             36.125             31.782             34.758
 Vibration     1          0.593              1.985              6.420
 Vibration     2          0.602              1.956              3.655
 Vibration     3          0.603              1.954              3.582
 Vibration     4          0.611              1.925              2.968
 Vibration     5          0.624              1.885              2.484
 Vibration     6          0.628              1.872              2.373
 Vibration     7          0.654              1.789              1.847
 Vibration     8          0.662              1.766              1.745
 Vibration     9          0.685              1.695              1.482
 Vibration    10          0.702              1.645              1.337
 Vibration    11          0.738              1.545              1.102
 Vibration    12          0.762              1.481              0.982
 Vibration    13          0.779              1.435              0.905
 Vibration    14          0.794              1.399              0.850
 Vibration    15          0.829              1.311              0.730
 Vibration    16          0.908              1.135              0.540
 Vibration    17          0.922              1.104              0.511

 Normal termination of Gaussian 16 at Sat May 24 03:44:54 2025.
