 Gaussian 16, Revision C.01,
 Gaussian 16:  ES64L-G16RevC.01  3-Jul-2019

 -----------------------------------------------------------------
 #P M062X/Def2TZVPP Symm(None) scf(xqc) pop(None) freq opt(CalcFC)
 -----------------------------------------------------------------

 ------------------------------
 Gaussian input prepared by ASE
 ------------------------------
 Symbolic Z-matrix:
 Charge =  0 Multiplicity = 1

 SCF Done:  E(RM062X) =  -1199.77772599     A.U. after   15 cycles
 SCF Done:  E(RM062X) =  -1199.77826822     A.U. after   14 cycles
 SCF Done:  E(RM062X) =  -1199.77843304     A.U. after   14 cycles
 SCF Done:  E(RM062X) =  -1199.77701570     A.U. after   15 cycles
 SCF Done:  E(RM062X) =  -1199.77863199     A.U. after   13 cycles
 SCF Done:  E(RM062X) =  -1199.77870116     A.U. after   14 cycles
 SCF Done:  E(RM062X) =  -1199.77872351     A.U. after   11 cycles
 SCF Done:  E(RM062X) =  -1199.77872604     A.U. after   10 cycles
 SCF Done:  E(RM062X) =  -1199.77872620     A.U. after    8 cycles
 Optimization completed.
    -- Stationary point found.
 Normal termination of Gaussian 16 at Sat May 24 05:44:06 2025.

 ---------------------------------------------------------------------
 #P Geom=AllCheck Guess=TCheck SCRF=Check GenChk RM062X/def2TZVPP Freq
 ---------------------------------------------------------------------

 Structure from the checkpoint file:  "2003846667223680600001_r12_insertion_R_6_5_7_IRC_R_prod.chk"
 ------------------------------
 Gaussian input prepared by ASE
 ------------------------------
 Charge =  0 Multiplicity = 1

                          Input orientation:
 ---------------------------------------------------------------------
 Center     Atomic      Atomic             Coordinates (Angstroms)
 Number     Number       Type             X           Y           Z
 ---------------------------------------------------------------------
      1          6           0       -1.096235   -0.573202    0.744518
      2          6           0       -0.636151    0.390551   -0.367706
      3          9           0       -1.047697   -0.105026   -1.546546
      4          9           0       -1.229260    1.579267   -0.173225
      5         16           0        1.211477    0.760724   -0.629975
      6          8           0        1.626296   -0.670726   -1.085784
      7          8           0        2.861892    0.128519   -0.828003
      8          8           0        1.375700    0.909001    0.950908
      9          9           0       -0.359975   -1.676740    0.726870
     10          9           0       -1.002621   -0.006954    1.936627
     11          9           0       -2.366044   -0.909073    0.541220
     12          1           0        2.316640    1.006283    1.151754
 ---------------------------------------------------------------------

 SCF Done:  E(RM062X) =  -1199.77872620     A.U. after    1 cycles

 Isotropic polarizability for W=    0.000000       58.19 Bohr**3.
 End of Minotr F.D. properties file   721 does not exist.

                      1                      2                      3
                      A                      A                      A
 Frequencies --     34.9433                76.0958               126.0118
 Red. masses --     12.7599                15.7785                13.9724
 Frc consts  --      0.0092                 0.0538                 0.1307
 IR Inten    --      0.7356                 0.9217                 0.1615

                      4                      5                      6
                      A                      A                      A
 Frequencies --    167.4631               210.5692               228.1643
 Red. masses --     14.6222                11.2523                17.8763
 Frc consts  --      0.2416                 0.2940                 0.5483
 IR Inten    --      3.1443                 4.9496                 1.5411

                      7                      8                      9
                      A                      A                      A
 Frequencies --    273.0028               290.9713               326.2790
 Red. masses --     10.5388                15.8641                11.8242
 Frc consts  --      0.4628                 0.7913                 0.7416
 IR Inten    --      1.7488                 1.0117                 1.4048

                     10                     11                     12
                      A                      A                      A
 Frequencies --    357.9489               375.1193               423.4491
 Red. masses --      4.6346                 2.1509                15.1627
 Frc consts  --      0.3499                 0.1783                 1.6019
 IR Inten    --     15.1856                65.0626                42.9687

                     13                     14                     15
                      A                      A                      A
 Frequencies --    449.9606               458.1446               489.3079
 Red. masses --     15.4592                 8.0077                 3.5984
 Frc consts  --      1.8441                 0.9903                 0.5076
 IR Inten    --     53.5710               147.8516                47.5005

                     16                     17                     18
                      A                      A                      A
 Frequencies --    547.2095               603.4391               650.3617
 Red. masses --     17.7673                17.6410                16.3990
 Frc consts  --      3.1346                 3.7848                 4.0867
 IR Inten    --      3.8104                 1.8880                 4.1885

                     19                     20                     21
                      A                      A                      A
 Frequencies --    771.7483               875.3148               907.5261
 Red. masses --     16.8636                17.4721                17.2232
 Frc consts  --      5.9177                 7.8872                 8.3576
 IR Inten    --     14.1387                64.8691                65.3838

                     22                     23                     24
                      A                      A                      A
 Frequencies --   1021.1656              1067.3725              1185.5125
 Red. masses --      9.4090                14.0624                 3.7302
 Frc consts  --      5.7808                 9.4393                 3.0888
 IR Inten    --     57.5487                67.8148                96.5434

                     25                     26                     27
                      A                      A                      A
 Frequencies --   1193.3775              1230.1513              1273.0473
 Red. masses --      1.7479                 8.1747                12.4615
 Frc consts  --      1.4666                 7.2885                11.8990
 IR Inten    --    220.4763                91.0270               233.8417

                     28                     29                     30
                      A                      A                      A
 Frequencies --   1295.6230              1376.3645              3819.5378
 Red. masses --     13.1443                12.1708                 1.0651
 Frc consts  --     13.0000                13.5843                 9.1552
 IR Inten    --    278.2840               189.3744               175.2932

 - Thermochemistry -
 -------------------
 Temperature   298.150 Kelvin.  Pressure   1.00000 Atm.
 Atom     1 has atomic number  6 and mass  12.00000

 Molecular mass:   199.95666 amu.
 Principal axes and moments of inertia in atomic units:
                           1         2         3
     Eigenvalues --  1105.571132316.824352394.77542
           X            0.91980   0.39212  -0.01433
           Y            0.19940  -0.43567   0.87774
           Z           -0.33794   0.81021   0.47892
 This molecule is an asymmetric top.
 Rotational symmetry number  1.
 Warning -- assumption of classical behavior for rotation
           may cause significant error
 Rotational temperatures (Kelvin)      0.07834     0.03738     0.03617
 Rotational constants (GHZ):           1.63241     0.77897     0.75362
 Zero-point vibrational energy     132218.4 (Joules/Mol)
                                   31.60094 (Kcal/Mol)
 Warning -- explicit consideration of  17 degrees of freedom as
           vibrations may cause significant error
 Vibrational temperatures:     50.28   109.48   181.30   240.94   302.96
          (Kelvin)            328.28   392.79   418.64   469.44   515.01
                              539.71   609.25   647.39   659.17   704.00
                              787.31   868.21   935.73  1110.37  1259.38
                             1305.73  1469.23  1535.71  1705.69  1717.00
                             1769.91  1831.63  1864.11  1980.28  5495.46

 Zero-point correction=                           0.050359 (Hartree/Particle)
 Thermal correction to Energy=                    0.061031
 Thermal correction to Enthalpy=                  0.061975
 Thermal correction to Gibbs Free Energy=         0.013137
 Sum of electronic and zero-point Energies=          -1199.728367
 Sum of electronic and thermal Energies=             -1199.717696
 Sum of electronic and thermal Enthalpies=           -1199.716751
 Sum of electronic and thermal Free Energies=        -1199.765589

                     E (Thermal)             CV                S
                      KCal/Mol        Cal/Mol-Kelvin    Cal/Mol-Kelvin
 Total                   38.297             37.377            102.788
 Electronic               0.000              0.000              0.000
 Translational            0.889              2.981             41.783
 Rotational               0.889              2.981             30.196
 Vibrational             36.520             31.416             30.808
 Vibration     1          0.594              1.983              5.527
 Vibration     2          0.599              1.965              3.989
 Vibration     3          0.611              1.927              3.006
 Vibration     4          0.624              1.882              2.464
 Vibration     5          0.643              1.825              2.039
 Vibration     6          0.651              1.798              1.893
 Vibration     7          0.676              1.723              1.577
 Vibration     8          0.687              1.691              1.468
 Vibration     9          0.710              1.623              1.278
 Vibration    10          0.733              1.559              1.131
 Vibration    11          0.746              1.523              1.059
 Vibration    12          0.786              1.419              0.880
 Vibration    13          0.809              1.361              0.796
 Vibration    14          0.816              1.343              0.772
 Vibration    15          0.845              1.274              0.685
 Vibration    16          0.902              1.146              0.550
 Vibration    17          0.962              1.025              0.444

 Optimization completed.
    -- Stationary point found.
 Normal termination of Gaussian 16 at Sat May 24 05:48:16 2025.
