 Gaussian 16, Revision C.01,
 Gaussian 16:  ES64L-G16RevC.01  3-Jul-2019

 ----------------------------------------------------------------------
 #P M062X/Def2TZVPP Symm(None) scf(xqc) pop(None) geom(AllCheck,NoKeepC
 onstants) guess(Read) irc(RCFC,forward,MaxPoints=100,StepSize=2)
 ----------------------------------------------------------------------

 Structure from the checkpoint file:  "2003846667223680600001_r13_insertion_ROR_1_2_5_8_IRC_F.chk"
 ------------------------------
 Gaussian input prepared by ASE
 ------------------------------
 Charge =  0 Multiplicity = 1

 SCF Done:  E(RM062X) =  -1199.74837910     A.U. after   10 cycles
 SCF Done:  E(RM062X) =  -1199.74844996     A.U. after   11 cycles
 SCF Done:  E(RM062X) =  -1199.74856719     A.U. after   11 cycles
 SCF Done:  E(RM062X) =  -1199.74872998     A.U. after   11 cycles
 SCF Done:  E(RM062X) =  -1199.74893734     A.U. after   11 cycles
 SCF Done:  E(RM062X) =  -1199.74918819     A.U. after   11 cycles
 SCF Done:  E(RM062X) =  -1199.74948133     A.U. after   11 cycles
 SCF Done:  E(RM062X) =  -1199.74981547     A.U. after   11 cycles
 SCF Done:  E(RM062X) =  -1199.75018923     A.U. after   11 cycles
 SCF Done:  E(RM062X) =  -1199.75060119     A.U. after   11 cycles
 SCF Done:  E(RM062X) =  -1199.82138516     A.U. after   11 cycles
 SCF Done:  E(RM062X) =  -1199.82221996     A.U. after   11 cycles
 SCF Done:  E(RM062X) =  -1199.82305103     A.U. after   11 cycles
 SCF Done:  E(RM062X) =  -1199.82387821     A.U. after   11 cycles
 SCF Done:  E(RM062X) =  -1199.82470131     A.U. after   11 cycles
 SCF Done:  E(RM062X) =  -1199.82552013     A.U. after   11 cycles
 SCF Done:  E(RM062X) =  -1199.82633445     A.U. after   11 cycles
 SCF Done:  E(RM062X) =  -1199.82714404     A.U. after   11 cycles
 SCF Done:  E(RM062X) =  -1199.82794864     A.U. after   11 cycles
 SCF Done:  E(RM062X) =  -1199.82874802     A.U. after   11 cycles

                          Input orientation:
 ---------------------------------------------------------------------
 Center     Atomic      Atomic             Coordinates (Angstroms)
 Number     Number       Type             X           Y           Z
 ---------------------------------------------------------------------
      1          6           0       -1.652329    0.062614   -0.070572
      2          6           0        0.680895   -0.975798    0.393911
      3          9           0        1.000973   -1.136702    1.647757
      4          9           0        1.177361   -1.948497   -0.321722
      5         16           0        1.524601    0.698359   -0.251636
      6          8           0        1.780899    1.750729    0.672843
      7          8           0        1.229412    0.957258   -1.621339
      8          8           0       -0.773822    1.072758    0.143060
      9          9           0       -1.780017   -0.683238    1.018982
     10          9           0       -2.814411    0.632013   -0.348095
     11          9           0       -1.358387   -0.745578   -1.088871
     12          1           0       -1.142261    1.894583   -0.201659
 ---------------------------------------------------------------------

 Normal termination of Gaussian 16 at Sat May 24 07:54:10 2025.
