 Gaussian 16, Revision C.01,
 Gaussian 16:  ES64L-G16RevC.01  3-Jul-2019

 ----------------------------------------------------------------------
 #P mp2/6-31G Symm(None) scf(xqc) pop(None) guess(Mix,Always) freq opt(
 CalcFC)
 ----------------------------------------------------------------------

 ------------------------------
 Gaussian input prepared by ASE
 ------------------------------
 Symbolic Z-matrix:
 Charge =  0 Multiplicity = 1

 SCF Done:  E(RHF) =  -1194.96254462     A.U. after   19 cycles
 E2 =    -0.1291520190D+01 EUMP2 =    -0.11962540648065D+04
 E2 =    -0.1291520190D+01 EUMP2 =    -0.11962540648065D+04
 SCF Done:  E(RHF) =  -1194.96303114     A.U. after   19 cycles
 E2 =    -0.1291232600D+01 EUMP2 =    -0.11962542637366D+04
 SCF Done:  E(RHF) =  -1194.96454129     A.U. after   19 cycles
 E2 =    -0.1290388160D+01 EUMP2 =    -0.11962549294476D+04
 SCF Done:  E(RHF) =  -1194.96662253     A.U. after   18 cycles
 E2 =    -0.1288705086D+01 EUMP2 =    -0.11962553276175D+04
 SCF Done:  E(RHF) =  -1194.96663170     A.U. after   18 cycles
 E2 =    -0.1288890689D+01 EUMP2 =    -0.11962555223922D+04
 SCF Done:  E(RHF) =  -1194.96639512     A.U. after   19 cycles
 E2 =    -0.1289166521D+01 EUMP2 =    -0.11962555616438D+04
 SCF Done:  E(RHF) =  -1194.96639426     A.U. after   19 cycles
 E2 =    -0.1289193198D+01 EUMP2 =    -0.11962555874624D+04
 SCF Done:  E(RHF) =  -1194.96644015     A.U. after   19 cycles
 E2 =    -0.1289200191D+01 EUMP2 =    -0.11962556403407D+04
 SCF Done:  E(RHF) =  -1194.96651402     A.U. after   19 cycles
 E2 =    -0.1289149378D+01 EUMP2 =    -0.11962556633974D+04
 SCF Done:  E(RHF) =  -1194.96646489     A.U. after   19 cycles
 E2 =    -0.1289193896D+01 EUMP2 =    -0.11962556587883D+04
 E2 =    -0.1289132953D+01 EUMP2 =    -0.11962557261363D+04
 E2 =    -0.1289254042D+01 EUMP2 =    -0.11962557387573D+04
 E2 =    -0.1289214944D+01 EUMP2 =    -0.11962557046273D+04
 E2 =    -0.1289423735D+01 EUMP2 =    -0.11962557827053D+04
 E2 =    -0.1289156960D+01 EUMP2 =    -0.11962557134820D+04
 E2 =    -0.1289804031D+01 EUMP2 =    -0.11962557842720D+04
 E2 =    -0.1290265263D+01 EUMP2 =    -0.11962559330724D+04
 E2 =    -0.1290601867D+01 EUMP2 =    -0.11962550919424D+04
 E2 =    -0.1287824986D+01 EUMP2 =    -0.11962322030465D+04
 E2 =    -0.1286969948D+01 EUMP2 =    -0.11962325406932D+04
 E2 =    -0.1289699547D+01 EUMP2 =    -0.11962561884600D+04
 E2 =    -0.1290116002D+01 EUMP2 =    -0.11962560505615D+04
 E2 =    -0.1291824515D+01 EUMP2 =    -0.11962560982359D+04
 E2 =    -0.1290800189D+01 EUMP2 =    -0.11962564632811D+04
 E2 =    -0.1290546084D+01 EUMP2 =    -0.11962563014592D+04
 E2 =    -0.1285481580D+01 EUMP2 =    -0.11962330200257D+04
 E2 =    -0.1290590924D+01 EUMP2 =    -0.11962566593511D+04
 E2 =    -0.1290419920D+01 EUMP2 =    -0.11962566050499D+04
 SCF Done:  E(RHF) =  -1194.96615246     A.U. after   19 cycles
 E2 =    -0.1290519627D+01 EUMP2 =    -0.11962566720852D+04
 SCF Done:  E(RHF) =  -1194.96559753     A.U. after   19 cycles
 E2 =    -0.1290849817D+01 EUMP2 =    -0.11962564473416D+04
 SCF Done:  E(RHF) =  -1194.96611995     A.U. after   19 cycles
 E2 =    -0.1290305526D+01 EUMP2 =    -0.11962564254727D+04
 SCF Done:  E(RHF) =  -1194.96608951     A.U. after   19 cycles
 E2 =    -0.1290080803D+01 EUMP2 =    -0.11962561703147D+04
 SCF Done:  E(RHF) =  -1194.96620891     A.U. after   19 cycles
 E2 =    -0.1290470303D+01 EUMP2 =    -0.11962566792174D+04
 SCF Done:  E(RHF) =  -1194.96653657     A.U. after   19 cycles
 E2 =    -0.1290134440D+01 EUMP2 =    -0.11962566710060D+04
 SCF Done:  E(RHF) =  -1194.96619997     A.U. after   19 cycles
 E2 =    -0.1290497886D+01 EUMP2 =    -0.11962566978588D+04
 SCF Done:  E(RHF) =  -1194.96616169     A.U. after   19 cycles
 E2 =    -0.1290542030D+01 EUMP2 =    -0.11962567037153D+04
 SCF Done:  E(RHF) =  -1194.96615627     A.U. after   19 cycles
 E2 =    -0.1290547597D+01 EUMP2 =    -0.11962567038627D+04
 Optimization completed.
    -- Stationary point found.
 Normal termination of Gaussian 16 at Sat May 24 04:36:14 2025.

 -------------------------------------------------------------------
 #P Geom=AllCheck Guess=TCheck SCRF=Check GenChk RMP2(FC)/6-31G Freq
 -------------------------------------------------------------------

 Structure from the checkpoint file:  "2003846667223680600001_R_Addition_MultipleBond_5_2_3_IRC_R_prod.chk"
 ------------------------------
 Gaussian input prepared by ASE
 ------------------------------
 Charge =  0 Multiplicity = 1

                          Input orientation:
 ---------------------------------------------------------------------
 Center     Atomic      Atomic             Coordinates (Angstroms)
 Number     Number       Type             X           Y           Z
 ---------------------------------------------------------------------
      1          6           0       -1.123032   -0.680529   -0.583706
      2          6           0       -0.564547    0.359531    0.404473
      3          9           0       -1.087376    1.619476    0.152899
      4          9           0       -0.855045   -0.044061    1.710692
      5         16           0        1.422108    0.609023    0.453054
      6          8           0        1.736734    2.090354    0.944638
      7          8           0        2.126329   -0.645758    1.133021
      8          8           0        1.486663    0.505032   -1.358158
      9          9           0       -1.187561   -0.179664   -1.871346
     10          9           0       -0.329579   -1.823285   -0.562016
     11          9           0       -2.414408   -1.030124   -0.182729
     12          1           0        2.406699    0.682756   -1.685087
 ---------------------------------------------------------------------

 SCF Done:  E(RHF) =  -1194.96615627     A.U. after    1 cycles
 E2 =    -0.1290547595D+01 EUMP2 =    -0.11962567038612D+04
 E2 =    -0.1290547595D+01 EUMP2 =    -0.11962567038612D+04

                      1                      2                      3
                      A                      A                      A
 Frequencies --     39.2497                64.6725               126.8078
 Red. masses --     12.6820                18.3339                 6.8582
 Frc consts  --      0.0115                 0.0452                 0.0650
 IR Inten    --      0.8059                 0.0747                18.3874

                      4                      5                      6
                      A                      A                      A
 Frequencies --    144.6660               158.4572               190.1282
 Red. masses --      2.3614                 4.5588                 3.7535
 Frc consts  --      0.0291                 0.0674                 0.0799
 IR Inten    --     43.2451                14.0780                26.3858

                      7                      8                      9
                      A                      A                      A
 Frequencies --    216.7291               221.5086               272.2040
 Red. masses --     13.8118                14.4569                 7.5680
 Frc consts  --      0.3822                 0.4179                 0.3304
 IR Inten    --      9.1884                 4.5366                23.8964

                     10                     11                     12
                      A                      A                      A
 Frequencies --    291.6169               340.2213               353.8334
 Red. masses --     16.1182                16.6406                11.7373
 Frc consts  --      0.8076                 1.1349                 0.8658
 IR Inten    --      2.3424                 7.1478                50.3072

                     13                     14                     15
                      A                      A                      A
 Frequencies --    373.6680               416.7658               450.7182
 Red. masses --     12.9077                17.4618                14.3156
 Frc consts  --      1.0619                 1.7870                 1.7134
 IR Inten    --     13.0878                 1.3199               103.3696

                     16                     17                     18
                      A                      A                      A
 Frequencies --    494.9225               556.0654               580.0258
 Red. masses --     16.3351                17.6306                16.8643
 Frc consts  --      2.3575                 3.2119                 3.3428
 IR Inten    --     11.5183                 4.4467                34.1265

                     19                     20                     21
                      A                      A                      A
 Frequencies --    625.0246               689.5384               901.3460
 Red. masses --     18.1971                16.9703                12.0374
 Frc consts  --      4.1884                 4.7540                 5.7619
 IR Inten    --    134.5156                33.7133               128.8285

                     22                     23                     24
                      A                      A                      A
 Frequencies --    979.7904              1084.1304              1097.4979
 Red. masses --      8.3353                13.6780                 1.2905
 Frc consts  --      4.7145                 9.4719                 0.9158
 IR Inten    --     51.4584               120.7399               119.3444

                     25                     26                     27
                      A                      A                      A
 Frequencies --   1125.5278              1187.7426              1188.5562
 Red. masses --     17.9252                11.2651                11.4159
 Frc consts  --     13.3791                 9.3633                 9.5016
 IR Inten    --    128.4736               161.1573               154.7201

                     28                     29                     30
                      A                      A                      A
 Frequencies --   1227.0901              1303.0239              3530.6683
 Red. masses --     13.0448                12.3417                 1.0663
 Frc consts  --     11.5729                12.3461                 7.8317
 IR Inten    --    181.6293               168.0095               102.2137

 - Thermochemistry -
 -------------------
 Temperature   298.150 Kelvin.  Pressure   1.00000 Atm.
 Atom     1 has atomic number  6 and mass  12.00000

 Molecular mass:   199.95666 amu.
 Principal axes and moments of inertia in atomic units:
                           1         2         3
     Eigenvalues --  1276.880642381.658052497.37360
           X            0.85627  -0.50139  -0.12410
           Y            0.41927   0.53438   0.73393
           Z            0.30167   0.68048  -0.66779
 This molecule is an asymmetric top.
 Rotational symmetry number  1.
 Warning -- assumption of classical behavior for rotation
           may cause significant error
 Rotational temperatures (Kelvin)      0.06783     0.03637     0.03468
 Rotational constants (GHZ):           1.41340     0.75777     0.72266
 Zero-point vibrational energy     121015.4 (Joules/Mol)
                                   28.92338 (Kcal/Mol)
 Warning -- explicit consideration of  18 degrees of freedom as
           vibrations may cause significant error
 Vibrational temperatures:     56.47    93.05   182.45   208.14   227.98
          (Kelvin)            273.55   311.82   318.70   391.64   419.57
                              489.50   509.09   537.62   599.63   648.48
                              712.08   800.05   834.53   899.27   992.09
                             1296.84  1409.70  1559.82  1579.05  1619.38
                             1708.90  1710.07  1765.51  1874.76  5079.84

 Zero-point correction=                           0.046092 (Hartree/Particle)
 Thermal correction to Energy=                    0.057778
 Thermal correction to Enthalpy=                  0.058723
 Thermal correction to Gibbs Free Energy=         0.007684
 Sum of electronic and zero-point Energies=          -1196.210612
 Sum of electronic and thermal Energies=             -1196.198926
 Sum of electronic and thermal Enthalpies=           -1196.197981
 Sum of electronic and thermal Free Energies=        -1196.249020

                     E (Thermal)             CV                S
                      KCal/Mol        Cal/Mol-Kelvin    Cal/Mol-Kelvin
 Total                   36.256             39.799            107.421
 Electronic               0.000              0.000              0.000
 Translational            0.889              2.981             41.783
 Rotational               0.889              2.981             30.408
 Vibrational             34.479             33.837             35.229
 Vibration     1          0.594              1.981              5.297
 Vibration     2          0.597              1.971              4.309
 Vibration     3          0.611              1.926              2.994
 Vibration     4          0.616              1.908              2.741
 Vibration     5          0.621              1.893              2.568
 Vibration     6          0.633              1.853              2.227
 Vibration     7          0.646              1.816              1.986
 Vibration     8          0.648              1.808              1.947
 Vibration     9          0.675              1.725              1.582
 Vibration    10          0.687              1.689              1.465
 Vibration    11          0.720              1.595              1.211
 Vibration    12          0.730              1.567              1.149
 Vibration    13          0.745              1.526              1.065
 Vibration    14          0.780              1.434              0.903
 Vibration    15          0.809              1.359              0.794
 Vibration    16          0.851              1.261              0.671
 Vibration    17          0.912              1.126              0.532
 Vibration    18          0.937              1.074              0.485

                           ! Non-Optimized Parameters !
 Normal termination of Gaussian 16 at Sat May 24 04:36:52 2025.
