 Gaussian 16, Revision C.01,
 Gaussian 16:  ES64L-G16RevC.01  3-Jul-2019

 -----------------------------------------------------------------
 #P M062X/Def2TZVPP Symm(None) scf(xqc) pop(None) freq opt(CalcFC)
 -----------------------------------------------------------------

 ------------------------------
 Gaussian input prepared by ASE
 ------------------------------
 Symbolic Z-matrix:
 Charge =  0 Multiplicity = 1

 SCF Done:  E(RM062X) =  -1199.93504448     A.U. after   13 cycles
 SCF Done:  E(RM062X) =  -1199.94022230     A.U. after   12 cycles
 SCF Done:  E(RM062X) =  -1199.94042105     A.U. after   14 cycles
 SCF Done:  E(RM062X) =  -1199.93597136     A.U. after   13 cycles
 SCF Done:  E(RM062X) =  -1199.94060588     A.U. after   11 cycles
 SCF Done:  E(RM062X) =  -1199.94064854     A.U. after   11 cycles
 SCF Done:  E(RM062X) =  -1199.94066872     A.U. after   11 cycles
 SCF Done:  E(RM062X) =  -1199.94067699     A.U. after    9 cycles
 SCF Done:  E(RM062X) =  -1199.94067892     A.U. after   10 cycles
 SCF Done:  E(RM062X) =  -1199.94067919     A.U. after    8 cycles
 SCF Done:  E(RM062X) =  -1199.94067924     A.U. after    7 cycles
 Optimization completed.
    -- Stationary point found.
 Normal termination of Gaussian 16 at Sat May 24 05:48:53 2025.

 ---------------------------------------------------------------------
 #P Geom=AllCheck Guess=TCheck SCRF=Check GenChk RM062X/def2TZVPP Freq
 ---------------------------------------------------------------------

 Structure from the checkpoint file:  "2003846667223680600001_r12_insertion_R_1_2_5_IRC_R_prod.chk"
 ------------------------------
 Gaussian input prepared by ASE
 ------------------------------
 Charge =  0 Multiplicity = 1

                          Input orientation:
 ---------------------------------------------------------------------
 Center     Atomic      Atomic             Coordinates (Angstroms)
 Number     Number       Type             X           Y           Z
 ---------------------------------------------------------------------
      1          6           0       -1.177667   -0.883305    0.070113
      2          6           0       -0.436779    0.468887   -0.041834
      3          9           0       -0.753821    1.031855   -1.214480
      4          9           0       -0.833448    1.262760    0.948714
      5         16           0        1.398847    0.316525    0.028516
      6          8           0        1.763438    0.094045    1.373255
      7          8           0        1.784842   -0.528585   -1.044105
      8          8           0        1.769520    1.803934   -0.318676
      9          9           0       -0.940236   -1.631227   -0.992602
     10          9           0       -0.786613   -1.526920    1.157988
     11          9           0       -2.479695   -0.648429    0.149272
     12          1           0        1.842036    1.917214   -1.277544
 ---------------------------------------------------------------------

 SCF Done:  E(RM062X) =  -1199.94067924     A.U. after    1 cycles

 Isotropic polarizability for W=    0.000000       53.48 Bohr**3.
 End of Minotr F.D. properties file   721 does not exist.

                      1                      2                      3
                      A                      A                      A
 Frequencies --     27.0496                69.7500               128.1339
 Red. masses --     14.5982                13.8939                14.5664
 Frc consts  --      0.0063                 0.0398                 0.1409
 IR Inten    --      1.2443                 0.9347                 1.3827

                      4                      5                      6
                      A                      A                      A
 Frequencies --    194.0317               221.3574               237.7323
 Red. masses --      8.9212                16.6297                 7.7171
 Frc consts  --      0.1979                 0.4801                 0.2570
 IR Inten    --      8.4271                 1.7053                11.9740

                      7                      8                      9
                      A                      A                      A
 Frequencies --    283.7423               316.8625               323.4029
 Red. masses --     13.3925                 4.6647                18.0432
 Frc consts  --      0.6353                 0.2759                 1.1119
 IR Inten    --      0.2862                18.3007                 0.0554

                     10                     11                     12
                      A                      A                      A
 Frequencies --    361.8804               376.1469               445.6978
 Red. masses --      1.8867                16.9493                 4.9799
 Frc consts  --      0.1456                 1.4129                 0.5828
 IR Inten    --     52.6360                 0.5672                21.7880

                     13                     14                     15
                      A                      A                      A
 Frequencies --    499.7831               507.6230               543.9267
 Red. masses --      7.4771                14.6680                17.7654
 Frc consts  --      1.1004                 2.2269                 3.0968
 IR Inten    --      7.5190                32.6139                25.0943

                     16                     17                     18
                      A                      A                      A
 Frequencies --    608.9914               631.4334               664.2604
 Red. masses --     17.1444                19.4418                17.6439
 Frc consts  --      3.7462                 4.5671                 4.5869
 IR Inten    --      3.6774               110.2394                47.7761

                     19                     20                     21
                      A                      A                      A
 Frequencies --    781.8579               899.0478              1041.1981
 Red. masses --     17.3696                16.5610                14.0100
 Frc consts  --      6.2560                 7.8868                 8.9486
 IR Inten    --     19.2334               228.7303                28.1560

                     22                     23                     24
                      A                      A                      A
 Frequencies --   1139.6676              1201.1264              1257.6315
 Red. masses --      1.1813                13.5833                15.8463
 Frc consts  --      0.9040                11.5460                14.7667
 IR Inten    --     93.4103               246.0899                16.3373

                     25                     26                     27
                      A                      A                      A
 Frequencies --   1264.5493              1302.6501              1304.8175
 Red. masses --     13.3510                13.9157                13.2032
 Frc consts  --     12.5787                13.9127                13.2442
 IR Inten    --     89.7271               320.4259               237.8876

                     28                     29                     30
                      A                      A                      A
 Frequencies --   1389.0241              1506.3729              3808.1651
 Red. masses --     12.6925                15.5621                 1.0657
 Frc consts  --     14.4284                20.8058                 9.1054
 IR Inten    --     92.1539               295.8071               187.8923

 - Thermochemistry -
 -------------------
 Temperature   298.150 Kelvin.  Pressure   1.00000 Atm.
 Atom     1 has atomic number  6 and mass  12.00000

 Molecular mass:   199.95666 amu.
 Principal axes and moments of inertia in atomic units:
                           1         2         3
     Eigenvalues --  1118.930112147.589122266.24355
           X            0.89700  -0.44131  -0.02521
           Y            0.44119   0.89032   0.11260
           Z           -0.02725  -0.11213   0.99332
 This molecule is an asymmetric top.
 Rotational symmetry number  1.
 Warning -- assumption of classical behavior for rotation
           may cause significant error
 Rotational temperatures (Kelvin)      0.07741     0.04033     0.03822
 Rotational constants (GHZ):           1.61292     0.84036     0.79636
 Zero-point vibrational energy     139591.7 (Joules/Mol)
                                   33.36322 (Kcal/Mol)
 Warning -- explicit consideration of  16 degrees of freedom as
           vibrations may cause significant error
 Vibrational temperatures:     38.92   100.35   184.36   279.17   318.48
          (Kelvin)            342.04   408.24   455.89   465.30   520.67
                              541.19   641.26   719.08   730.36   782.59
                              876.20   908.49   955.72  1124.92  1293.53
                             1498.05  1639.73  1728.15  1809.45  1819.40
                             1874.22  1877.34  1998.50  2167.33  5479.10

 Zero-point correction=                           0.053168 (Hartree/Particle)
 Thermal correction to Energy=                    0.063475
 Thermal correction to Enthalpy=                  0.064419
 Thermal correction to Gibbs Free Energy=         0.016042
 Sum of electronic and zero-point Energies=          -1199.887512
 Sum of electronic and thermal Energies=             -1199.877204
 Sum of electronic and thermal Enthalpies=           -1199.876260
 Sum of electronic and thermal Free Energies=        -1199.924637

                     E (Thermal)             CV                S
                      KCal/Mol        Cal/Mol-Kelvin    Cal/Mol-Kelvin
 Total                   39.831             35.990            101.818
 Electronic               0.000              0.000              0.000
 Translational            0.889              2.981             41.783
 Rotational               0.889              2.981             30.078
 Vibrational             38.054             30.029             29.957
 Vibration     1          0.593              1.984              6.035
 Vibration     2          0.598              1.969              4.160
 Vibration     3          0.611              1.925              2.974
 Vibration     4          0.635              1.848              2.189
 Vibration     5          0.648              1.809              1.948
 Vibration     6          0.656              1.783              1.820
 Vibration     7          0.682              1.704              1.511
 Vibration     8          0.704              1.641              1.326
 Vibration     9          0.708              1.629              1.293
 Vibration    10          0.736              1.551              1.114
 Vibration    11          0.747              1.521              1.055
 Vibration    12          0.805              1.370              0.809
 Vibration    13          0.855              1.250              0.659
 Vibration    14          0.863              1.233              0.639
 Vibration    15          0.899              1.153              0.557
 Vibration    16          0.968              1.013              0.434

 Optimization completed.
    -- Stationary point found.
 Normal termination of Gaussian 16 at Sat May 24 05:53:38 2025.
