 Gaussian 16, Revision C.01,
 Gaussian 16:  ES64L-G16RevC.01  3-Jul-2019

 ----------------------------------------------------------------------
 #P M062X/Def2TZVPP Symm(None) scf(xqc) pop(None) geom(AllCheck,NoKeepC
 onstants) guess(Read) irc(RCFC,forward,MaxPoints=100,StepSize=2)
 ----------------------------------------------------------------------

 Structure from the checkpoint file:  "2003846667223680600001_r12_insertion_R_1_2_3_IRC_F.chk"
 ------------------------------
 Gaussian input prepared by ASE
 ------------------------------
 Charge =  0 Multiplicity = 1

 SCF Done:  E(RM062X) =  -1199.81153644     A.U. after    9 cycles
 SCF Done:  E(RM062X) =  -1199.81158920     A.U. after   10 cycles
 SCF Done:  E(RM062X) =  -1199.81167693     A.U. after   10 cycles
 SCF Done:  E(RM062X) =  -1199.81179941     A.U. after   10 cycles
 SCF Done:  E(RM062X) =  -1199.81195631     A.U. after   10 cycles
 SCF Done:  E(RM062X) =  -1199.81214715     A.U. after   10 cycles
 SCF Done:  E(RM062X) =  -1199.81237135     A.U. after   10 cycles
 SCF Done:  E(RM062X) =  -1199.81262821     A.U. after   10 cycles
 SCF Done:  E(RM062X) =  -1199.81291694     A.U. after   10 cycles
 SCF Done:  E(RM062X) =  -1199.81323669     A.U. after   10 cycles
 SCF Done:  E(RM062X) =  -1199.89371013     A.U. after    9 cycles
 SCF Done:  E(RM062X) =  -1199.89548447     A.U. after    9 cycles
 SCF Done:  E(RM062X) =  -1199.89725497     A.U. after    9 cycles
 SCF Done:  E(RM062X) =  -1199.89901926     A.U. after    9 cycles
 SCF Done:  E(RM062X) =  -1199.90077484     A.U. after    9 cycles
 SCF Done:  E(RM062X) =  -1199.90251912     A.U. after    9 cycles
 SCF Done:  E(RM062X) =  -1199.90424940     A.U. after    9 cycles
 SCF Done:  E(RM062X) =  -1199.90596284     A.U. after    9 cycles
 SCF Done:  E(RM062X) =  -1199.90765649     A.U. after    9 cycles
 SCF Done:  E(RM062X) =  -1199.90932720     A.U. after    9 cycles

                          Input orientation:
 ---------------------------------------------------------------------
 Center     Atomic      Atomic             Coordinates (Angstroms)
 Number     Number       Type             X           Y           Z
 ---------------------------------------------------------------------
      1          6           0       -1.205228   -0.240166   -0.714308
      2          6           0       -0.404685   -0.098744    0.597770
      3          9           0       -0.863016    1.033799   -1.537938
      4          9           0       -0.931922    0.915231    1.278574
      5         16           0        1.420308    0.159541    0.308319
      6          8           0        1.981800    0.483228    1.563949
      7          8           0        1.817142   -0.996868   -0.410016
      8          8           0        1.378105    1.415549   -0.590538
      9          9           0       -0.873700   -1.288394   -1.405628
     10          9           0       -0.609908   -1.239185    1.270390
     11          9           0       -2.485821   -0.309546   -0.460891
     12          1           0        0.616198    1.400128   -1.204532
 ---------------------------------------------------------------------

 Normal termination of Gaussian 16 at Sat May 24 05:49:42 2025.
