 Gaussian 16, Revision C.01,
 Gaussian 16:  ES64L-G16RevC.01  3-Jul-2019

 -----------------------------------------------------------------
 #P M062X/Def2TZVPP Symm(None) scf(xqc) pop(None) freq opt(CalcFC)
 -----------------------------------------------------------------

 ------------------------------
 Gaussian input prepared by ASE
 ------------------------------
 Symbolic Z-matrix:
 Charge =  0 Multiplicity = 1

 SCF Done:  E(RM062X) =  -1199.81658787     A.U. after   17 cycles
 SCF Done:  E(RM062X) =  -1199.84310481     A.U. after   16 cycles
 SCF Done:  E(RM062X) =  -1199.88905151     A.U. after   14 cycles
 SCF Done:  E(RM062X) =  -1199.93685120     A.U. after   14 cycles
 SCF Done:  E(RM062X) =  -1199.93964477     A.U. after   11 cycles
 SCF Done:  E(RM062X) =  -1199.94000455     A.U. after   12 cycles
 SCF Done:  E(RM062X) =  -1199.94058927     A.U. after   11 cycles
 SCF Done:  E(RM062X) =  -1199.94065162     A.U. after   10 cycles
 SCF Done:  E(RM062X) =  -1199.94066257     A.U. after   10 cycles
 SCF Done:  E(RM062X) =  -1199.94066831     A.U. after    8 cycles
 SCF Done:  E(RM062X) =  -1199.94067081     A.U. after    8 cycles
 SCF Done:  E(RM062X) =  -1199.94067324     A.U. after    8 cycles
 SCF Done:  E(RM062X) =  -1199.94067513     A.U. after    9 cycles
 SCF Done:  E(RM062X) =  -1199.94067567     A.U. after    8 cycles
 Optimization completed.
    -- Stationary point found.
 Normal termination of Gaussian 16 at Sat May 24 05:06:04 2025.

 ---------------------------------------------------------------------
 #P Geom=AllCheck Guess=TCheck SCRF=Check GenChk RM062X/def2TZVPP Freq
 ---------------------------------------------------------------------

 Structure from the checkpoint file:  "2003846667223680600001_r12_insertion_R_6_5_8_IRC_R_prod.chk"
 ------------------------------
 Gaussian input prepared by ASE
 ------------------------------
 Charge =  0 Multiplicity = 1

                          Input orientation:
 ---------------------------------------------------------------------
 Center     Atomic      Atomic             Coordinates (Angstroms)
 Number     Number       Type             X           Y           Z
 ---------------------------------------------------------------------
      1          6           0       -1.044763   -1.020250    0.077639
      2          6           0       -0.350391    0.356013   -0.039336
      3          9           0       -0.655107    0.885972   -1.230550
      4          9           0       -0.802633    1.152327    0.925060
      5         16           0        1.486985    0.271830    0.082308
      6          8           0        1.822611    0.083431    1.439799
      7          8           0        1.932020   -0.575317   -0.965586
      8          8           0        1.813305    1.766129   -0.279584
      9          9           0       -0.747414   -1.779203   -0.961889
     10          9           0       -0.664597   -1.627906    1.189787
     11          9           0       -2.356305   -0.832205    0.112503
     12          1           0        1.908230    1.866603   -1.237942
 ---------------------------------------------------------------------

 SCF Done:  E(RM062X) =  -1199.94067567     A.U. after    1 cycles

 Isotropic polarizability for W=    0.000000       53.48 Bohr**3.
 End of Minotr F.D. properties file   721 does not exist.

                      1                      2                      3
                      A                      A                      A
 Frequencies --     22.9214                69.4752               128.3663
 Red. masses --     14.7511                13.7471                14.6582
 Frc consts  --      0.0046                 0.0391                 0.1423
 IR Inten    --      1.2156                 0.9972                 1.3519

                      4                      5                      6
                      A                      A                      A
 Frequencies --    192.7692               221.0783               237.6384
 Red. masses --      9.1511                16.6949                 7.7608
 Frc consts  --      0.2004                 0.4808                 0.2582
 IR Inten    --      8.0274                 1.7152                11.9266

                      7                      8                      9
                      A                      A                      A
 Frequencies --    283.5751               316.9475               323.2784
 Red. masses --     13.4218                 4.8474                17.9196
 Frc consts  --      0.6359                 0.2869                 1.1034
 IR Inten    --      0.3005                17.2966                 0.0414

                     10                     11                     12
                      A                      A                      A
 Frequencies --    362.8068               376.1043               446.1739
 Red. masses --      1.8747                16.5524                 4.8577
 Frc consts  --      0.1454                 1.3795                 0.5698
 IR Inten    --     52.9171                 0.7140                22.2308

                     13                     14                     15
                      A                      A                      A
 Frequencies --    499.7556               507.4318               543.7081
 Red. masses --      7.3779                14.5847                17.7557
 Frc consts  --      1.0857                 2.2126                 3.0926
 IR Inten    --      7.5205                32.9162                25.3326

                     16                     17                     18
                      A                      A                      A
 Frequencies --    608.9045               630.8559               664.0237
 Red. masses --     17.1474                19.4366                17.6322
 Frc consts  --      3.7458                 4.5576                 4.5806
 IR Inten    --      3.6916               110.8237                47.0756

                     19                     20                     21
                      A                      A                      A
 Frequencies --    781.7198               898.1579              1040.7996
 Red. masses --     17.3623                16.5683                14.0181
 Frc consts  --      6.2511                 7.8747                 8.9469
 IR Inten    --     19.5310               229.0431                28.2109

                     22                     23                     24
                      A                      A                      A
 Frequencies --   1139.1468              1200.8609              1256.6507
 Red. masses --      1.1816                13.5928                15.8827
 Frc consts  --      0.9034                11.5490                14.7776
 IR Inten    --     93.5977               246.3799                16.9064

                     25                     26                     27
                      A                      A                      A
 Frequencies --   1263.8613              1302.0866              1304.7601
 Red. masses --     13.3502                13.8716                13.2049
 Frc consts  --     12.5642                13.8566                13.2448
 IR Inten    --     89.2608               321.5200               236.0692

                     28                     29                     30
                      A                      A                      A
 Frequencies --   1389.2107              1504.9123              3807.1386
 Red. masses --     12.6894                15.5343                 1.0657
 Frc consts  --     14.4287                20.7283                 9.1005
 IR Inten    --     91.3187               295.9054               187.9090

 - Thermochemistry -
 -------------------
 Temperature   298.150 Kelvin.  Pressure   1.00000 Atm.
 Atom     1 has atomic number  6 and mass  12.00000

 Molecular mass:   199.95666 amu.
 Principal axes and moments of inertia in atomic units:
                           1         2         3
     Eigenvalues --  1118.973352147.548012266.22066
           X            0.88095  -0.46985  -0.05633
           Y            0.47307   0.87152   0.12904
           Z           -0.01153  -0.14033   0.99004
 This molecule is an asymmetric top.
 Rotational symmetry number  1.
 Warning -- assumption of classical behavior for rotation
           may cause significant error
 Rotational temperatures (Kelvin)      0.07740     0.04033     0.03822
 Rotational constants (GHZ):           1.61285     0.84037     0.79637
 Zero-point vibrational energy     139515.2 (Joules/Mol)
                                   33.34493 (Kcal/Mol)
 Warning -- explicit consideration of  16 degrees of freedom as
           vibrations may cause significant error
 Vibrational temperatures:     32.98    99.96   184.69   277.35   318.08
          (Kelvin)            341.91   408.00   456.02   465.13   522.00
                              541.13   641.94   719.04   730.08   782.27
                              876.08   907.66   955.38  1124.72  1292.25
                             1497.48  1638.98  1727.77  1808.04  1818.41
                             1873.41  1877.26  1998.76  2165.23  5477.62

 Zero-point correction=                           0.053139 (Hartree/Particle)
 Thermal correction to Energy=                    0.063457
 Thermal correction to Enthalpy=                  0.064402
 Thermal correction to Gibbs Free Energy=         0.015859
 Sum of electronic and zero-point Energies=          -1199.887537
 Sum of electronic and thermal Energies=             -1199.877218
 Sum of electronic and thermal Enthalpies=           -1199.876274
 Sum of electronic and thermal Free Energies=        -1199.924816

                     E (Thermal)             CV                S
                      KCal/Mol        Cal/Mol-Kelvin    Cal/Mol-Kelvin
 Total                   39.820             35.997            102.166
 Electronic               0.000              0.000              0.000
 Translational            0.889              2.981             41.783
 Rotational               0.889              2.981             30.078
 Vibrational             38.043             30.036             30.305
 Vibration     1          0.593              1.985              6.364
 Vibration     2          0.598              1.969              4.168
 Vibration     3          0.611              1.925              2.970
 Vibration     4          0.635              1.850              2.201
 Vibration     5          0.648              1.809              1.950
 Vibration     6          0.656              1.783              1.820
 Vibration     7          0.682              1.704              1.512
 Vibration     8          0.704              1.641              1.326
 Vibration     9          0.708              1.629              1.293
 Vibration    10          0.737              1.549              1.110
 Vibration    11          0.747              1.521              1.055
 Vibration    12          0.805              1.369              0.807
 Vibration    13          0.855              1.251              0.659
 Vibration    14          0.863              1.234              0.640
 Vibration    15          0.899              1.153              0.557
 Vibration    16          0.968              1.013              0.435

 Optimization completed.
    -- Stationary point found.
 Normal termination of Gaussian 16 at Sat May 24 05:10:35 2025.
