 Gaussian 16, Revision C.01,
 Gaussian 16:  ES64L-G16RevC.01  3-Jul-2019

 ----------------------------------------------------------------------
 #P M062X/Def2TZVPP Symm(None) scf(xqc) pop(None) opt(CalcAll,Cartesian
 )
 ----------------------------------------------------------------------

 ------------------------------
 Gaussian input prepared by ASE
 ------------------------------
 Symbolic Z-matrix:
 Charge =  0 Multiplicity = 1

 SCF Done:  E(RM062X) =  -1199.87360067     A.U. after   14 cycles
 SCF Done:  E(RM062X) =  -1199.87359226     A.U. after   12 cycles
 SCF Done:  E(RM062X) =  -1199.87362756     A.U. after   11 cycles
 SCF Done:  E(RM062X) =  -1199.87361717     A.U. after   11 cycles
 SCF Done:  E(RM062X) =  -1199.87363103     A.U. after   11 cycles
 SCF Done:  E(RM062X) =  -1199.87364421     A.U. after   12 cycles
 SCF Done:  E(RM062X) =  -1199.87368525     A.U. after   11 cycles
 SCF Done:  E(RM062X) =  -1199.87371794     A.U. after   11 cycles
 SCF Done:  E(RM062X) =  -1199.87379032     A.U. after   12 cycles
 SCF Done:  E(RM062X) =  -1199.87389704     A.U. after   11 cycles
 SCF Done:  E(RM062X) =  -1199.87395892     A.U. after   12 cycles
 SCF Done:  E(RM062X) =  -1199.87402202     A.U. after   12 cycles
 SCF Done:  E(RM062X) =  -1199.87325859     A.U. after   13 cycles
 SCF Done:  E(RM062X) =  -1199.87393059     A.U. after   12 cycles
 SCF Done:  E(RM062X) =  -1199.87403051     A.U. after    9 cycles
 SCF Done:  E(RM062X) =  -1199.87406194     A.U. after   11 cycles
 SCF Done:  E(RM062X) =  -1199.87408118     A.U. after   11 cycles
 SCF Done:  E(RM062X) =  -1199.87409156     A.U. after   10 cycles
 SCF Done:  E(RM062X) =  -1199.87409222     A.U. after   10 cycles
 SCF Done:  E(RM062X) =  -1199.87409226     A.U. after    8 cycles

 Isotropic polarizability for W=    0.000000       58.68 Bohr**3.
 End of Minotr F.D. properties file   721 does not exist.

 Optimization completed.
    -- Stationary point found.

                          Input orientation:
 ---------------------------------------------------------------------
 Center     Atomic      Atomic             Coordinates (Angstroms)
 Number     Number       Type             X           Y           Z
 ---------------------------------------------------------------------
      1          6           0       -1.445467    0.663446    0.370155
      2          6           0        0.540651   -2.214837   -0.925920
      3          9           0        1.661760   -2.636860   -1.416547
      4          9           0        0.391347   -2.876685    0.171583
      5         16           0        0.961718    0.953506   -0.642152
      6          8           0       -0.365881    1.480573    0.265304
      7          8           0        1.683832    0.070320    0.231858
      8          8           0        1.649860    2.378611   -0.574249
      9          9           0       -2.402909    1.331530    0.987292
     10          9           0       -1.891671    0.284929   -0.825162
     11          9           0       -1.177502   -0.433083    1.068291
     12          1           0        1.951211    2.568479    0.329506
 ---------------------------------------------------------------------

                      1                      2                      3
                      A                      A                      A
 Frequencies --     37.1291                41.9189                46.5114
 Red. masses --     16.6779                17.2096                17.1750
 Frc consts  --      0.0135                 0.0178                 0.0219
 IR Inten    --      0.4930                 0.1430                 0.0434

                      4                      5                      6
                      A                      A                      A
 Frequencies --     52.4695                66.2291                76.5975
 Red. masses --     14.5381                14.6063                17.4940
 Frc consts  --      0.0236                 0.0377                 0.0605
 IR Inten    --      2.5123                 1.3216                 0.0659

                      7                      8                      9
                      A                      A                      A
 Frequencies --     82.0232               153.6436               214.1944
 Red. masses --     14.4841                11.6472                 4.6192
 Frc consts  --      0.0574                 0.1620                 0.1249
 IR Inten    --      0.6304                 1.0145                10.6163

                     10                     11                     12
                      A                      A                      A
 Frequencies --    246.2172               323.1833               350.3760
 Red. masses --      1.9572                15.5543                 4.9552
 Frc consts  --      0.0699                 0.9572                 0.3584
 IR Inten    --     42.8811                 1.4927                15.0124

                     13                     14                     15
                      A                      A                      A
 Frequencies --    428.3213               485.4978               515.2418
 Red. masses --      9.7838                 8.1681                 5.7045
 Frc consts  --      1.0575                 1.1343                 0.8923
 IR Inten    --     31.3498                40.7120                62.6417

                     16                     17                     18
                      A                      A                      A
 Frequencies --    563.7202               642.1303               690.8050
 Red. masses --     14.3860                17.0516                15.0590
 Frc consts  --      2.6935                 4.1425                 4.2341
 IR Inten    --     76.0914                 9.2227                 6.7286

                     19                     20                     21
                      A                      A                      A
 Frequencies --    692.5602               764.1253               882.0955
 Red. masses --     17.4716                17.3085                14.3909
 Frc consts  --      4.9374                 5.9544                 6.5974
 IR Inten    --      3.9297               151.9081               264.0841

                     22                     23                     24
                      A                      A                      A
 Frequencies --    976.5951              1128.3550              1188.7265
 Red. masses --     16.7987                 1.3693                12.5267
 Frc consts  --      9.4396                 1.0271                10.4292
 IR Inten    --     38.4714               102.2470               270.8516

                     25                     26                     27
                      A                      A                      A
 Frequencies --   1251.5070              1260.0935              1292.9854
 Red. masses --      7.2362                13.0360                13.7241
 Frc consts  --      6.6777                12.1955                13.5182
 IR Inten    --    427.3420               269.0944               295.9540

                     28                     29                     30
                      A                      A                      A
 Frequencies --   1315.2910              1319.7774              3752.2545
 Red. masses --     13.2807                13.6994                 1.0646
 Frc consts  --     13.5367                14.0589                 8.8309
 IR Inten    --    397.3859               343.7820               131.8277

 - Thermochemistry -
 -------------------
 Temperature   298.150 Kelvin.  Pressure   1.00000 Atm.
 Atom     1 has atomic number  6 and mass  12.00000

 Molecular mass:   199.95666 amu.
 Principal axes and moments of inertia in atomic units:
                           1         2         3
     Eigenvalues --  1614.793062524.330303617.77789
           X           -0.50840   0.79669   0.32682
           Y            0.82992   0.55456  -0.06085
           Z            0.22972  -0.24030   0.94312
 This molecule is an asymmetric top.
 Rotational symmetry number  1.
 Warning -- assumption of classical behavior for rotation
           may cause significant error
 Rotational temperatures (Kelvin)      0.05364     0.03431     0.02394
 Rotational constants (GHZ):           1.11763     0.71494     0.49885
 Zero-point vibrational energy     124654.3 (Joules/Mol)
                                   29.79310 (Kcal/Mol)
 Warning -- explicit consideration of  16 degrees of freedom as
           vibrations may cause significant error
 Vibrational temperatures:     53.42    60.31    66.92    75.49    95.29
          (Kelvin)            110.21   118.01   221.06   308.18   354.25
                              464.99   504.11   616.26   698.52   741.32
                              811.07   923.88   993.91   996.44  1099.41
                             1269.14  1405.10  1623.45  1710.31  1800.64
                             1812.99  1860.32  1892.41  1898.87  5398.66

 Zero-point correction=                           0.047478 (Hartree/Particle)
 Thermal correction to Energy=                    0.060037
 Thermal correction to Enthalpy=                  0.060982
 Thermal correction to Gibbs Free Energy=         0.004686
 Sum of electronic and zero-point Energies=          -1199.826614
 Sum of electronic and thermal Energies=             -1199.814055
 Sum of electronic and thermal Enthalpies=           -1199.813111
 Sum of electronic and thermal Free Energies=        -1199.869406

                     E (Thermal)             CV                S
                      KCal/Mol        Cal/Mol-Kelvin    Cal/Mol-Kelvin
 Total                   37.674             39.000            118.484
 Electronic               0.000              0.000              0.000
 Translational            0.889              2.981             41.783
 Rotational               0.889              2.981             31.067
 Vibrational             35.897             33.038             45.633
 Vibration     1          0.594              1.982              5.407
 Vibration     2          0.595              1.980              5.166
 Vibration     3          0.595              1.979              4.960
 Vibration     4          0.596              1.977              4.722
 Vibration     5          0.598              1.970              4.262
 Vibration     6          0.599              1.965              3.976
 Vibration     7          0.600              1.961              3.842
 Vibration     8          0.619              1.899              2.627
 Vibration     9          0.644              1.819              2.008
 Vibration    10          0.661              1.769              1.758
 Vibration    11          0.708              1.629              1.294
 Vibration    12          0.727              1.574              1.165
 Vibration    13          0.790              1.409              0.864
 Vibration    14          0.842              1.282              0.695
 Vibration    15          0.870              1.216              0.621
 Vibration    16          0.919              1.110              0.516

 Normal termination of Gaussian 16 at Sat May 24 10:17:33 2025.
