 Gaussian 16, Revision C.01,
 Gaussian 16:  ES64L-G16RevC.01  3-Jul-2019

 ----------------------------------------------------------------------
 #P M062X/Def2TZVPP Symm(None) scf(xqc) pop(None) geom(AllCheck,NoKeepC
 onstants) guess(Read) irc(RCFC,reverse,MaxPoints=100,StepSize=2)
 ----------------------------------------------------------------------

 Structure from the checkpoint file:  "2003846667223680600001_r12_insertion_R_2_1_9_IRC_R.chk"
 ------------------------------
 Gaussian input prepared by ASE
 ------------------------------
 Charge =  0 Multiplicity = 1

 SCF Done:  E(RM062X) =  -1199.76411215     A.U. after   10 cycles
 SCF Done:  E(RM062X) =  -1199.76415135     A.U. after   11 cycles
 SCF Done:  E(RM062X) =  -1199.76421633     A.U. after   11 cycles
 SCF Done:  E(RM062X) =  -1199.76430675     A.U. after   11 cycles
 SCF Done:  E(RM062X) =  -1199.76442232     A.U. after   11 cycles
 SCF Done:  E(RM062X) =  -1199.76456279     A.U. after   11 cycles
 SCF Done:  E(RM062X) =  -1199.76472799     A.U. after   11 cycles
 SCF Done:  E(RM062X) =  -1199.76491782     A.U. after   11 cycles
 SCF Done:  E(RM062X) =  -1199.76513225     A.U. after   11 cycles
 SCF Done:  E(RM062X) =  -1199.76537132     A.U. after   11 cycles
 SCF Done:  E(RM062X) =  -1199.85960197     A.U. after    9 cycles
 SCF Done:  E(RM062X) =  -1199.86108091     A.U. after    9 cycles
 SCF Done:  E(RM062X) =  -1199.86254203     A.U. after    9 cycles
 SCF Done:  E(RM062X) =  -1199.86398499     A.U. after    9 cycles
 SCF Done:  E(RM062X) =  -1199.86540953     A.U. after    9 cycles
 SCF Done:  E(RM062X) =  -1199.86681547     A.U. after    9 cycles
 SCF Done:  E(RM062X) =  -1199.86820271     A.U. after    9 cycles
 SCF Done:  E(RM062X) =  -1199.86957121     A.U. after    9 cycles
 SCF Done:  E(RM062X) =  -1199.87092097     A.U. after    9 cycles
 SCF Done:  E(RM062X) =  -1199.87225207     A.U. after    9 cycles

                          Input orientation:
 ---------------------------------------------------------------------
 Center     Atomic      Atomic             Coordinates (Angstroms)
 Number     Number       Type             X           Y           Z
 ---------------------------------------------------------------------
      1          6           0       -1.017827   -0.858603    0.253851
      2          6           0       -0.621046    0.451614   -0.442332
      3          9           0       -0.915522    0.348796   -1.728979
      4          9           0       -1.128369    1.577460    0.032813
      5         16           0        1.249047    0.371636    0.050612
      6          8           0        1.231176   -0.303663    1.296489
      7          8           0        2.131649    0.033408   -1.010291
      8          8           0        1.445750    1.888864    0.388322
      9          9           0        0.046298   -1.589477   -0.333573
     10          9           0       -1.215723   -0.536531    1.541098
     11          9           0       -2.009609   -1.653209   -0.031382
     12          1           0        2.030297    2.297777   -0.264048
 ---------------------------------------------------------------------

 Normal termination of Gaussian 16 at Sat May 24 05:16:52 2025.
