 Gaussian 16, Revision C.01,
 Gaussian 16:  ES64L-G16RevC.01  3-Jul-2019

 ----------------------------------------------------------------------
 #P M062X/Def2TZVPP Symm(None) scf(xqc) pop(None) geom(AllCheck,NoKeepC
 onstants) guess(Read) irc(RCFC,reverse,MaxPoints=100,StepSize=2)
 ----------------------------------------------------------------------

 Structure from the checkpoint file:  "2003846667223680600001_r12_insertion_R_5_2_1_IRC_R.chk"
 ------------------------------
 Gaussian input prepared by ASE
 ------------------------------
 Charge =  0 Multiplicity = 1

 SCF Done:  E(RM062X) =  -1199.76665259     A.U. after   10 cycles
 SCF Done:  E(RM062X) =  -1199.76668251     A.U. after   10 cycles
 SCF Done:  E(RM062X) =  -1199.76673307     A.U. after   10 cycles
 SCF Done:  E(RM062X) =  -1199.76680483     A.U. after   10 cycles
 SCF Done:  E(RM062X) =  -1199.76689832     A.U. after   10 cycles
 SCF Done:  E(RM062X) =  -1199.76701409     A.U. after   10 cycles
 SCF Done:  E(RM062X) =  -1199.76715264     A.U. after   10 cycles
 SCF Done:  E(RM062X) =  -1199.76731445     A.U. after   10 cycles
 SCF Done:  E(RM062X) =  -1199.76749998     A.U. after   11 cycles
 SCF Done:  E(RM062X) =  -1199.76770965     A.U. after   11 cycles
 SCF Done:  E(RM062X) =  -1199.84201594     A.U. after    9 cycles
 SCF Done:  E(RM062X) =  -1199.84311094     A.U. after    9 cycles
 SCF Done:  E(RM062X) =  -1199.84420100     A.U. after    9 cycles
 SCF Done:  E(RM062X) =  -1199.84528606     A.U. after    9 cycles
 SCF Done:  E(RM062X) =  -1199.84636608     A.U. after    9 cycles
 SCF Done:  E(RM062X) =  -1199.84744100     A.U. after    9 cycles
 SCF Done:  E(RM062X) =  -1199.84851081     A.U. after    9 cycles
 SCF Done:  E(RM062X) =  -1199.84957547     A.U. after    9 cycles
 SCF Done:  E(RM062X) =  -1199.85063495     A.U. after    9 cycles
 SCF Done:  E(RM062X) =  -1199.85168924     A.U. after    9 cycles

                          Input orientation:
 ---------------------------------------------------------------------
 Center     Atomic      Atomic             Coordinates (Angstroms)
 Number     Number       Type             X           Y           Z
 ---------------------------------------------------------------------
      1          6           0       -0.805360   -1.083308    0.127611
      2          6           0       -0.546155    0.772302   -0.238739
      3          9           0       -0.891066    1.140611   -1.467263
      4          9           0       -1.161131    1.619658    0.580721
      5         16           0        1.122125    0.418689    0.074184
      6          8           0        1.145132    0.086269    1.452013
      7          8           0        1.505758   -0.494159   -0.948716
      8          8           0        1.856083    1.775204   -0.162628
      9          9           0       -1.261707   -1.465507   -1.037992
     10          9           0        0.013330   -2.089810    0.521343
     11          9           0       -1.669135   -0.951519    1.098930
     12          1           0        2.648992    1.644415   -0.700945
 ---------------------------------------------------------------------

 Normal termination of Gaussian 16 at Sat May 24 05:01:26 2025.
