 Gaussian 16, Revision C.01,
 Gaussian 16:  ES64L-G16RevC.01  3-Jul-2019

 ----------------------------------------------------------------------
 #P M062X/Def2TZVPP Symm(None) scf(xqc) pop(None) opt(NoFreeze,TS,CalcA
 ll,NoEigentest,MaxCycle=999)
 ----------------------------------------------------------------------

 ------------------------------
 Gaussian input prepared by ASE
 ------------------------------
 Symbolic Z-matrix:
 Charge =  0 Multiplicity = 1

 SCF Done:  E(RM062X) =  -1199.74910401     A.U. after   18 cycles
 SCF Done:  E(RM062X) =  -1199.75045093     A.U. after   16 cycles
 SCF Done:  E(RM062X) =  -1199.74238688     A.U. after   19 cycles
 SCF Done:  E(RM062X) =  -1199.72264914     A.U. after   20 cycles
 SCF Done:  E(RM062X) =  -1199.70554920     A.U. after   23 cycles
 SCF Done:  E(RM062X) =  -1199.69659493     A.U. after   27 cycles
 SCF Done:  E(RM062X) =  -1199.69049112     A.U. after   33 cycles
 SCF Done:  E(RM062X) =  -1199.69065455     a.u. after    3 cycles
 SCF Done:  E(RM062X) =  -1199.69172920     A.U. after   33 cycles
 SCF Done:  E(RM062X) =  -1199.69173380     a.u. after    3 cycles
 SCF Done:  E(RM062X) =  -1199.68969392     A.U. after   21 cycles
 SCF Done:  E(RM062X) =  -1199.68970885     A.U. after   16 cycles
 SCF Done:  E(RM062X) =  -1199.69023519     A.U. after   23 cycles
 SCF Done:  E(RM062X) =  -1199.69164410     A.U. after   29 cycles
 SCF Done:  E(RM062X) =  -1199.69216177     A.U. after   26 cycles
 SCF Done:  E(RM062X) =  -1199.69227043     A.U. after   22 cycles
 SCF Done:  E(RM062X) =  -1199.69245897     A.U. after   23 cycles
 SCF Done:  E(RM062X) =  -1199.69246279     A.U. after   24 cycles
 SCF Done:  E(RM062X) =  -1199.69246907     A.U. after   23 cycles
 SCF Done:  E(RM062X) =  -1199.69246912     A.U. after   18 cycles

 Isotropic polarizability for W=    0.000000       90.29 Bohr**3.
 End of Minotr F.D. properties file   721 does not exist.

 Optimization completed.
    -- Stationary point found.

                          Input orientation:
 ---------------------------------------------------------------------
 Center     Atomic      Atomic             Coordinates (Angstroms)
 Number     Number       Type             X           Y           Z
 ---------------------------------------------------------------------
      1          6           0        4.474732    1.514127    1.236831
      2          6           0        2.954077    1.239042    1.189529
      3          9           0        2.676778   -0.009933    1.434655
      4          9           0        2.297055    2.052544    1.977742
      5         16           0        2.320341    1.647016   -0.698290
      6          8           0       -0.115536    0.128860    1.529299
      7          8           0        3.317807    1.109770   -1.576540
      8          8           0        0.974241    1.112703   -0.708284
      9          9           0        5.134825    0.588016    0.577006
     10          9           0        4.715961    2.705712    0.710434
     11          9           0        4.861947    1.513360    2.503016
     12          1           0        0.279082    0.485119    0.719051
 ---------------------------------------------------------------------

 ******    2 imaginary frequencies (negative Signs) ******

                      1                      2                      3
                      A                      A                      A
 Frequencies --   -657.8782              -273.8927                58.0300
 Red. masses --      1.0911                 1.5997                16.0219
 Frc consts  --      0.2782                 0.0707                 0.0318
 IR Inten    --     95.2761                67.0030                 1.7783

                      4                      5                      6
                      A                      A                      A
 Frequencies --     70.2127                95.3972               111.5905
 Red. masses --     18.3113                12.6052                15.0355
 Frc consts  --      0.0532                 0.0676                 0.1103
 IR Inten    --      0.3326                 2.5675                 0.9767

                      7                      8                      9
                      A                      A                      A
 Frequencies --    119.0704               178.8691               183.8914
 Red. masses --      8.0750                14.0990                17.1333
 Frc consts  --      0.0675                 0.2658                 0.3414
 IR Inten    --      6.2904                 1.5843                 6.7848

                     10                     11                     12
                      A                      A                      A
 Frequencies --    222.5951               233.8078               299.1182
 Red. masses --     18.3738                16.6766                 5.7591
 Frc consts  --      0.5364                 0.5371                 0.3036
 IR Inten    --      5.6650                 3.2126                 5.9721

                     13                     14                     15
                      A                      A                      A
 Frequencies --    304.9463               367.3791               380.0246
 Red. masses --      5.3175                12.5475                18.3549
 Frc consts  --      0.2913                 0.9978                 1.5618
 IR Inten    --     11.5846                13.5686                 9.5677

                     16                     17                     18
                      A                      A                      A
 Frequencies --    451.9125               527.0702               545.6995
 Red. masses --     17.3245                11.2767                15.4852
 Frc consts  --      2.0846                 1.8457                 2.7169
 IR Inten    --     11.0164                58.8116                 9.2591

                     19                     20                     21
                      A                      A                      A
 Frequencies --    603.8312               646.3313               739.5062
 Red. masses --     17.7434                16.6092                14.9056
 Frc consts  --      3.8117                 4.0880                 4.8027
 IR Inten    --      3.8936                 6.7950               201.2260

                     22                     23                     24
                      A                      A                      A
 Frequencies --    873.0082              1123.0913              1177.4305
 Red. masses --     15.0609                16.9353                14.0520
 Frc consts  --      6.7630                12.5856                11.4778
 IR Inten    --    158.2073               166.9169                52.8959

                     25                     26                     27
                      A                      A                      A
 Frequencies --   1277.9176              1317.9387              1351.8145
 Red. masses --     13.2171                13.1888                13.2140
 Frc consts  --     12.7172                13.4973                14.2272
 IR Inten    --    172.3409               203.7668               249.5269

                     28                     29                     30
                      A                      A                      A
 Frequencies --   1366.9830              1376.1213              3690.6905
 Red. masses --     14.2406                16.5218                 1.0681
 Frc consts  --     15.6785                18.4340                 8.5721
 IR Inten    --    139.9296               345.0966               444.9657

 - Thermochemistry -
 -------------------
 Temperature   298.150 Kelvin.  Pressure   1.00000 Atm.
 Atom     1 has atomic number  6 and mass  12.00000

 Molecular mass:   199.95666 amu.
 Principal axes and moments of inertia in atomic units:
                           1         2         3
     Eigenvalues --  1354.581922235.275832891.05194
           X            0.94196  -0.24385  -0.23076
           Y            0.18828  -0.18540   0.96446
           Z            0.27796   0.95193   0.12873
 This molecule is an asymmetric top.
 Rotational symmetry number  1.
 Warning -- assumption of classical behavior for rotation
           may cause significant error
 Rotational temperatures (Kelvin)      0.06394     0.03875     0.02996
 Rotational constants (GHZ):           1.33232     0.80739     0.62425
    2 imaginary frequencies ignored.
 Zero-point vibrational energy     117797.9 (Joules/Mol)
                                   28.15439 (Kcal/Mol)
 Warning -- explicit consideration of  17 degrees of freedom as
           vibrations may cause significant error
 Vibrational temperatures:     83.49   101.02   137.26   160.55   171.32
          (Kelvin)            257.35   264.58   320.26   336.40   430.36
                              438.75   528.58   546.77   650.20   758.34
                              785.14   868.78   929.93  1063.98  1256.06
                             1615.88  1694.06  1838.64  1896.22  1944.96
                             1966.78  1979.93  5310.08

 Zero-point correction=                           0.044867 (Hartree/Particle)
 Thermal correction to Energy=                    0.056390
 Thermal correction to Enthalpy=                  0.057334
 Thermal correction to Gibbs Free Energy=         0.006183
 Sum of electronic and zero-point Energies=          -1199.647602
 Sum of electronic and thermal Energies=             -1199.636079
 Sum of electronic and thermal Enthalpies=           -1199.635135
 Sum of electronic and thermal Free Energies=        -1199.686286

                     E (Thermal)             CV                S
                      KCal/Mol        Cal/Mol-Kelvin    Cal/Mol-Kelvin
 Total                   35.385             37.533            107.658
 Electronic               0.000              0.000              0.000
 Translational            0.889              2.981             41.783
 Rotational               0.889              2.981             30.549
 Vibrational             33.608             31.572             35.325
 Vibration     1          0.596              1.974              4.523
 Vibration     2          0.598              1.968              4.147
 Vibration     3          0.603              1.952              3.546
 Vibration     4          0.607              1.940              3.241
 Vibration     5          0.609              1.933              3.115
 Vibration     6          0.629              1.868              2.340
 Vibration     7          0.631              1.862              2.289
 Vibration     8          0.648              1.807              1.938
 Vibration     9          0.654              1.789              1.850
 Vibration    10          0.692              1.675              1.422
 Vibration    11          0.696              1.664              1.390
 Vibration    12          0.740              1.539              1.091
 Vibration    13          0.750              1.513              1.039
 Vibration    14          0.811              1.357              0.790
 Vibration    15          0.882              1.190              0.594
 Vibration    16          0.901              1.149              0.553
 Vibration    17          0.962              1.024              0.443

 Normal termination of Gaussian 16 at Sat May 24 07:33:28 2025.
