 Gaussian 16, Revision C.01,
 Gaussian 16:  ES64L-G16RevC.01  3-Jul-2019

 ----------------------------------------------------------------------
 #P mp2/6-31G Symm(None) scf(xqc) pop(None) guess(Mix,Always) opt(NoFre
 eze,TS,CalcAll,NoEigentest,MaxCycle=999,Cartesian)
 ----------------------------------------------------------------------

 ------------------------------
 Gaussian input prepared by ASE
 ------------------------------
 Symbolic Z-matrix:
 Charge =  0 Multiplicity = 1

 SCF Done:  E(RHF) =  -1194.96488404     A.U. after   19 cycles
 E2 =    -0.1289132651D+01 EUMP2 =    -0.11962540166919D+04
 E2 =    -0.1289132651D+01 EUMP2 =    -0.11962540166919D+04
 SCF Done:  E(RHF) =  -1194.96476850     A.U. after   19 cycles
 E2 =    -0.1289359788D+01 EUMP2 =    -0.11962541282915D+04
 E2 =    -0.1289359788D+01 EUMP2 =    -0.11962541282915D+04
 SCF Done:  E(RHF) =  -1194.96481654     A.U. after   19 cycles
 E2 =    -0.1289385384D+01 EUMP2 =    -0.11962542019272D+04
 E2 =    -0.1289385384D+01 EUMP2 =    -0.11962542019272D+04
 SCF Done:  E(RHF) =  -1194.96513186     A.U. after   19 cycles
 E2 =    -0.1289147074D+01 EUMP2 =    -0.11962542789302D+04
 E2 =    -0.1289147074D+01 EUMP2 =    -0.11962542789302D+04
 SCF Done:  E(RHF) =  -1194.96487176     A.U. after   19 cycles
 E2 =    -0.1289387114D+01 EUMP2 =    -0.11962542588701D+04
 E2 =    -0.1289387114D+01 EUMP2 =    -0.11962542588701D+04
 SCF Done:  E(RHF) =  -1194.96509987     A.U. after   19 cycles
 E2 =    -0.1289186826D+01 EUMP2 =    -0.11962542866974D+04
 E2 =    -0.1289186826D+01 EUMP2 =    -0.11962542866974D+04
 SCF Done:  E(RHF) =  -1194.96425856     A.U. after   19 cycles
 E2 =    -0.1289923841D+01 EUMP2 =    -0.11962541824012D+04
 E2 =    -0.1289923841D+01 EUMP2 =    -0.11962541824012D+04
 SCF Done:  E(RHF) =  -1194.96479075     A.U. after   19 cycles
 E2 =    -0.1289452352D+01 EUMP2 =    -0.11962542431035D+04
 E2 =    -0.1289452352D+01 EUMP2 =    -0.11962542431035D+04
 SCF Done:  E(RHF) =  -1194.96335830     A.U. after   19 cycles
 E2 =    -0.1290734607D+01 EUMP2 =    -0.11962540929088D+04
 E2 =    -0.1290734607D+01 EUMP2 =    -0.11962540929088D+04
 SCF Done:  E(RHF) =  -1194.96427735     A.U. after   19 cycles
 E2 =    -0.1289951087D+01 EUMP2 =    -0.11962542284404D+04
 E2 =    -0.1289951087D+01 EUMP2 =    -0.11962542284404D+04
 SCF Done:  E(RHF) =  -1194.96333531     A.U. after   19 cycles
 E2 =    -0.1291213710D+01 EUMP2 =    -0.11962545490236D+04
 E2 =    -0.1291213710D+01 EUMP2 =    -0.11962545490236D+04
 SCF Done:  E(RHF) =  -1194.96282783     A.U. after   19 cycles
 E2 =    -0.1291566013D+01 EUMP2 =    -0.11962543938442D+04
 E2 =    -0.1291566013D+01 EUMP2 =    -0.11962543938442D+04
 SCF Done:  E(RHF) =  -1194.96243938     A.U. after   19 cycles
 E2 =    -0.1291820593D+01 EUMP2 =    -0.11962542599705D+04
 E2 =    -0.1291820593D+01 EUMP2 =    -0.11962542599705D+04
 SCF Done:  E(RHF) =  -1194.96217060     A.U. after   19 cycles
 E2 =    -0.1291982747D+01 EUMP2 =    -0.11962541533432D+04
 E2 =    -0.1291982747D+01 EUMP2 =    -0.11962541533432D+04
 SCF Done:  E(RHF) =  -1194.96202371     A.U. after   19 cycles
 E2 =    -0.1292057482D+01 EUMP2 =    -0.11962540811890D+04
 E2 =    -0.1292057482D+01 EUMP2 =    -0.11962540811890D+04
 SCF Done:  E(RHF) =  -1194.96202114     A.U. after   19 cycles
 E2 =    -0.1292028153D+01 EUMP2 =    -0.11962540492972D+04
 E2 =    -0.1292028153D+01 EUMP2 =    -0.11962540492972D+04
 SCF Done:  E(RHF) =  -1194.96242299     A.U. after   19 cycles
 E2 =    -0.1291645764D+01 EUMP2 =    -0.11962540687556D+04
 E2 =    -0.1291645764D+01 EUMP2 =    -0.11962540687556D+04
 SCF Done:  E(RHF) =  -1194.96240315     A.U. after   19 cycles
 E2 =    -0.1291661153D+01 EUMP2 =    -0.11962540643010D+04
 E2 =    -0.1291661153D+01 EUMP2 =    -0.11962540643010D+04
 SCF Done:  E(RHF) =  -1194.96252104     A.U. after   19 cycles
 E2 =    -0.1291543729D+01 EUMP2 =    -0.11962540647688D+04
 E2 =    -0.1291543729D+01 EUMP2 =    -0.11962540647688D+04
 SCF Done:  E(RHF) =  -1194.96252352     A.U. after   19 cycles
 E2 =    -0.1291541249D+01 EUMP2 =    -0.11962540647667D+04
 E2 =    -0.1291541249D+01 EUMP2 =    -0.11962540647667D+04
 Optimization completed.
    -- Stationary point found.

                          Input orientation:
 ---------------------------------------------------------------------
 Center     Atomic      Atomic             Coordinates (Angstroms)
 Number     Number       Type             X           Y           Z
 ---------------------------------------------------------------------
      1          6           0       -0.657789   -1.319415   -0.015926
      2          6           0       -0.081778    0.058260    0.335630
      3          9           0       -0.520746    1.012339   -0.563660
      4          9           0       -0.418452    0.409827    1.636667
      5         16           0        1.960731    0.030099    0.368134
      6          8           0        2.410089    0.620524    1.774705
      7          8           0        2.552042   -1.354862   -0.163207
      8          8           0        2.084028    1.275680   -0.949716
      9          9           0       -0.290327   -1.669501   -1.307856
     10          9           0       -0.177269   -2.267413    0.880308
     11          9           0       -2.048340   -1.285362    0.064223
     12          1           0        3.043884    1.378102   -1.189302
 ---------------------------------------------------------------------

 ******    1 imaginary frequencies (negative Signs) ******

                      1                      2                      3
                      A                      A                      A
 Frequencies --    -31.3897                72.7521               117.7140
 Red. masses --     10.0228                16.7401                 1.9615
 Frc consts  --      0.0058                 0.0522                 0.0160
 IR Inten    --      2.4828                 0.4910                54.8946

                      4                      5                      6
                      A                      A                      A
 Frequencies --    128.7639               188.7713               190.4122
 Red. masses --      4.8707                 5.0142                 9.7046
 Frc consts  --      0.0476                 0.1053                 0.2073
 IR Inten    --     30.5069                14.8864                 7.2256

                      7                      8                      9
                      A                      A                      A
 Frequencies --    216.0262               226.7571               258.7096
 Red. masses --     13.6081                11.6548                10.9139
 Frc consts  --      0.3742                 0.3531                 0.4304
 IR Inten    --      4.4543                 3.6685                10.8778

                     10                     11                     12
                      A                      A                      A
 Frequencies --    283.3816               338.0665               356.9410
 Red. masses --     11.3795                14.8904                14.5970
 Frc consts  --      0.5384                 1.0027                 1.0957
 IR Inten    --     11.9106                19.7209                34.9175

                     13                     14                     15
                      A                      A                      A
 Frequencies --    365.7373               409.4776               447.8859
 Red. masses --     12.0729                17.4763                13.7943
 Frc consts  --      0.9515                 1.7265                 1.6304
 IR Inten    --     19.8545                 2.0279               113.0333

                     16                     17                     18
                      A                      A                      A
 Frequencies --    491.0539               558.6330               579.4497
 Red. masses --     16.5369                17.6328                16.9998
 Frc consts  --      2.3494                 3.2421                 3.3630
 IR Inten    --      8.7480                 4.5518                39.9511

                     19                     20                     21
                      A                      A                      A
 Frequencies --    614.4560               688.2746               887.5985
 Red. masses --     18.2574                16.9470                13.3684
 Frc consts  --      4.0614                 4.7301                 6.2053
 IR Inten    --    173.5934                11.9616               109.9097

                     22                     23                     24
                      A                      A                      A
 Frequencies --    976.0912              1083.3010              1114.8851
 Red. masses --     12.1485                 4.4540                 1.6534
 Frc consts  --      6.8195                 3.0796                 1.2109
 IR Inten    --     66.3846               123.8106               139.9333

                     25                     26                     27
                      A                      A                      A
 Frequencies --   1120.2398              1197.3802              1206.8379
 Red. masses --      8.1011                13.1661                 9.7726
 Frc consts  --      5.9898                11.1217                 8.3861
 IR Inten    --    142.7516               171.6182                64.9702

                     28                     29                     30
                      A                      A                      A
 Frequencies --   1222.0259              1318.7223              3501.9542
 Red. masses --     13.0957                11.8521                 1.0660
 Frc consts  --     11.5223                12.1437                 7.7027
 IR Inten    --    225.0122               139.2230                94.3145

 - Thermochemistry -
 -------------------
 Temperature   298.150 Kelvin.  Pressure   1.00000 Atm.
 Atom     1 has atomic number  6 and mass  12.00000

 Molecular mass:   199.95666 amu.
 Principal axes and moments of inertia in atomic units:
                           1         2         3
     Eigenvalues --  1306.489732388.453142515.60696
           X            0.88947  -0.45688   0.01025
           Y            0.44824   0.86784  -0.21431
           Z            0.08902   0.19522   0.97671
 This molecule is an asymmetric top.
 Rotational symmetry number  1.
 Warning -- assumption of classical behavior for rotation
           may cause significant error
 Rotational temperatures (Kelvin)      0.06630     0.03626     0.03443
 Rotational constants (GHZ):           1.38137     0.75561     0.71742
    1 imaginary frequencies ignored.
 Zero-point vibrational energy     120597.3 (Joules/Mol)
                                   28.82345 (Kcal/Mol)
 Warning -- explicit consideration of  18 degrees of freedom as
           vibrations may cause significant error
 Vibrational temperatures:    104.67   169.36   185.26   271.60   273.96
          (Kelvin)            310.81   326.25   372.23   407.72   486.40
                              513.56   526.21   589.15   644.41   706.52
                              803.75   833.70   884.07   990.27  1277.06
                             1404.38  1558.63  1604.07  1611.78  1722.76
                             1736.37  1758.22  1897.35  5038.53

 Zero-point correction=                           0.045933 (Hartree/Particle)
 Thermal correction to Energy=                    0.056786
 Thermal correction to Enthalpy=                  0.057730
 Thermal correction to Gibbs Free Energy=         0.009196
 Sum of electronic and zero-point Energies=          -1196.208132
 Sum of electronic and thermal Energies=             -1196.197279
 Sum of electronic and thermal Enthalpies=           -1196.196335
 Sum of electronic and thermal Free Energies=        -1196.244869

                     E (Thermal)             CV                S
                      KCal/Mol        Cal/Mol-Kelvin    Cal/Mol-Kelvin
 Total                   35.634             37.887            102.150
 Electronic               0.000              0.000              0.000
 Translational            0.889              2.981             41.783
 Rotational               0.889              2.981             30.441
 Vibrational             33.856             31.925             29.925
 Vibration     1          0.599              1.967              4.077
 Vibration     2          0.608              1.935              3.138
 Vibration     3          0.611              1.924              2.964
 Vibration     4          0.633              1.855              2.240
 Vibration     5          0.634              1.853              2.224
 Vibration     6          0.645              1.817              1.992
 Vibration     7          0.650              1.800              1.904
 Vibration     8          0.668              1.748              1.670
 Vibration     9          0.682              1.704              1.513
 Vibration    10          0.718              1.599              1.221
 Vibration    11          0.732              1.561              1.135
 Vibration    12          0.739              1.543              1.098
 Vibration    13          0.774              1.450              0.928
 Vibration    14          0.807              1.366              0.802
 Vibration    15          0.847              1.270              0.681
 Vibration    16          0.914              1.121              0.527
 Vibration    17          0.936              1.076              0.486
 Vibration    18          0.974              1.001              0.425

 Normal termination of Gaussian 16 at Sat May 24 04:01:39 2025.
