 Gaussian 16, Revision C.01,
 Gaussian 16:  ES64L-G16RevC.01  3-Jul-2019

 -----------------------------------------------------------------
 #P M062X/Def2TZVPP Symm(None) scf(xqc) pop(None) freq opt(CalcFC)
 -----------------------------------------------------------------

 ------------------------------
 Gaussian input prepared by ASE
 ------------------------------
 Symbolic Z-matrix:
 Charge =  0 Multiplicity = 1

 SCF Done:  E(RM062X) =  -1199.90419360     A.U. after   13 cycles
 SCF Done:  E(RM062X) =  -1199.92842093     A.U. after   12 cycles
 SCF Done:  E(RM062X) =  -1199.93440324     A.U. after   12 cycles
 SCF Done:  E(RM062X) =  -1199.93724113     A.U. after   14 cycles
 SCF Done:  E(RM062X) =  -1199.90838964     A.U. after   14 cycles
 SCF Done:  E(RM062X) =  -1199.93637556     A.U. after   12 cycles
 SCF Done:  E(RM062X) =  -1199.93737712     A.U. after    8 cycles
 SCF Done:  E(RM062X) =  -1199.93896444     A.U. after   12 cycles
 SCF Done:  E(RM062X) =  -1199.93989118     A.U. after   12 cycles
 SCF Done:  E(RM062X) =  -1199.94041506     A.U. after   11 cycles
 SCF Done:  E(RM062X) =  -1199.94053722     A.U. after   11 cycles
 SCF Done:  E(RM062X) =  -1199.94054836     A.U. after   10 cycles
 SCF Done:  E(RM062X) =  -1199.94056382     A.U. after    9 cycles
 SCF Done:  E(RM062X) =  -1199.94056445     A.U. after    7 cycles
 Optimization completed.
    -- Stationary point found.
 Normal termination of Gaussian 16 at Sat May 24 05:32:43 2025.

 ---------------------------------------------------------------------
 #P Geom=AllCheck Guess=TCheck SCRF=Check GenChk RM062X/def2TZVPP Freq
 ---------------------------------------------------------------------

 Structure from the checkpoint file:  "2003846667223680600001_r12_insertion_R_5_2_3_IRC_F_prod.chk"
 ------------------------------
 Gaussian input prepared by ASE
 ------------------------------
 Charge =  0 Multiplicity = 1

                          Input orientation:
 ---------------------------------------------------------------------
 Center     Atomic      Atomic             Coordinates (Angstroms)
 Number     Number       Type             X           Y           Z
 ---------------------------------------------------------------------
      1          6           0       -1.114613   -0.826978   -0.261050
      2          6           0       -0.464892    0.434247    0.353465
      3          9           0       -0.947365    1.514820   -0.271121
      4          9           0       -0.781995    0.491737    1.644054
      5         16           0        1.374730    0.494672    0.233506
      6          8           0        1.771584    1.623005    0.996117
      7          8           0        1.864422   -0.811961    0.450831
      8          8           0        1.548363    0.816203   -1.293932
      9          9           0       -0.698912   -0.994435   -1.507970
     10          9           0       -0.817191   -1.896413    0.451274
     11          9           0       -2.431151   -0.665390   -0.266082
     12          1           0        1.547373    1.773769   -1.437364
 ---------------------------------------------------------------------

 SCF Done:  E(RM062X) =  -1199.94056445     A.U. after    1 cycles

 Isotropic polarizability for W=    0.000000       53.52 Bohr**3.
 End of Minotr F.D. properties file   721 does not exist.

                      1                      2                      3
                      A                      A                      A
 Frequencies --     46.7397                72.0551               135.2995
 Red. masses --     13.5234                15.7537                16.3895
 Frc consts  --      0.0174                 0.0482                 0.1768
 IR Inten    --      2.0411                 0.6119                 0.5632

                      4                      5                      6
                      A                      A                      A
 Frequencies --    192.7304               223.1244               241.2971
 Red. masses --      5.5652                17.3260                14.7114
 Frc consts  --      0.1218                 0.5082                 0.5047
 IR Inten    --     14.6042                 1.2355                 7.0838

                      7                      8                      9
                      A                      A                      A
 Frequencies --    286.5787               315.2421               322.4613
 Red. masses --     10.4887                16.9518                 5.3306
 Frc consts  --      0.5075                 0.9926                 0.3266
 IR Inten    --      0.9466                 0.1099                12.2888

                     10                     11                     12
                      A                      A                      A
 Frequencies --    352.5027               379.0170               446.8829
 Red. masses --      2.0550                 6.7752                14.2500
 Frc consts  --      0.1504                 0.5734                 1.6767
 IR Inten    --     48.2204                 9.6443                11.1369

                     13                     14                     15
                      A                      A                      A
 Frequencies --    473.2207               529.3013               542.8103
 Red. masses --      4.3734                14.4311                17.8944
 Frc consts  --      0.5770                 2.3821                 3.1065
 IR Inten    --     30.3552                17.3873                20.6411

                     16                     17                     18
                      A                      A                      A
 Frequencies --    609.8290               630.4399               664.2694
 Red. masses --     17.2577                19.2906                17.3821
 Frc consts  --      3.7814                 4.5173                 4.5190
 IR Inten    --      5.3130               109.6147                47.6420

                     19                     20                     21
                      A                      A                      A
 Frequencies --    781.5334               903.7094              1040.6216
 Red. masses --     17.3589                16.7697                13.5890
 Frc consts  --      6.2470                 8.0692                 8.6701
 IR Inten    --     11.4455               186.4701                96.3164

                     22                     23                     24
                      A                      A                      A
 Frequencies --   1141.9502              1196.7583              1256.3546
 Red. masses --      1.1859                13.9664                13.8992
 Frc consts  --      0.9111                11.7855                12.9260
 IR Inten    --     87.3479               127.6468                41.8682

                     25                     26                     27
                      A                      A                      A
 Frequencies --   1275.6171              1287.2023              1311.3344
 Red. masses --     14.7966                13.5308                13.3447
 Frc consts  --     14.1858                13.2090                13.5203
 IR Inten    --    190.3868               197.8864               366.1749

                     28                     29                     30
                      A                      A                      A
 Frequencies --   1389.5577              1501.8486              3807.4029
 Red. masses --     12.6967                15.3424                 1.0657
 Frc consts  --     14.4442                20.3890                 9.1017
 IR Inten    --     82.0671               279.8392               190.2349

 - Thermochemistry -
 -------------------
 Temperature   298.150 Kelvin.  Pressure   1.00000 Atm.
 Atom     1 has atomic number  6 and mass  12.00000

 Molecular mass:   199.95666 amu.
 Principal axes and moments of inertia in atomic units:
                           1         2         3
     Eigenvalues --  1131.792852108.629962245.54170
           X            0.87706  -0.46223   0.13081
           Y            0.46470   0.74736  -0.47488
           Z            0.12174   0.47728   0.87028
 This molecule is an asymmetric top.
 Rotational symmetry number  1.
 Warning -- assumption of classical behavior for rotation
           may cause significant error
 Rotational temperatures (Kelvin)      0.07653     0.04108     0.03857
 Rotational constants (GHZ):           1.59459     0.85588     0.80370
 Zero-point vibrational energy     139710.0 (Joules/Mol)
                                   33.39150 (Kcal/Mol)
 Warning -- explicit consideration of  16 degrees of freedom as
           vibrations may cause significant error
 Vibrational temperatures:     67.25   103.67   194.67   277.30   321.03
          (Kelvin)            347.17   412.32   453.56   463.95   507.17
                              545.32   642.96   680.86   761.55   780.98
                              877.41   907.06   955.74  1124.45  1300.24
                             1497.22  1643.01  1721.87  1807.61  1835.33
                             1852.00  1886.72  1999.26  2160.83  5478.00

 Zero-point correction=                           0.053213 (Hartree/Particle)
 Thermal correction to Energy=                    0.063465
 Thermal correction to Enthalpy=                  0.064409
 Thermal correction to Gibbs Free Energy=         0.016629
 Sum of electronic and zero-point Energies=          -1199.887352
 Sum of electronic and thermal Energies=             -1199.877099
 Sum of electronic and thermal Enthalpies=           -1199.876155
 Sum of electronic and thermal Free Energies=        -1199.923936

                     E (Thermal)             CV                S
                      KCal/Mol        Cal/Mol-Kelvin    Cal/Mol-Kelvin
 Total                   39.825             35.990            100.563
 Electronic               0.000              0.000              0.000
 Translational            0.889              2.981             41.783
 Rotational               0.889              2.981             30.062
 Vibrational             38.048             30.029             28.718
 Vibration     1          0.595              1.979              4.951
 Vibration     2          0.598              1.967              4.096
 Vibration     3          0.613              1.918              2.869
 Vibration     4          0.635              1.850              2.201
 Vibration     5          0.649              1.806              1.934
 Vibration     6          0.658              1.777              1.793
 Vibration     7          0.684              1.699              1.494
 Vibration     8          0.703              1.645              1.335
 Vibration     9          0.707              1.630              1.298
 Vibration    10          0.729              1.570              1.155
 Vibration    11          0.749              1.515              1.043
 Vibration    12          0.806              1.368              0.805
 Vibration    13          0.830              1.309              0.729
 Vibration    14          0.884              1.185              0.589
 Vibration    15          0.898              1.155              0.559
 Vibration    16          0.969              1.011              0.433

 Optimization completed.
    -- Stationary point found.
 Normal termination of Gaussian 16 at Sat May 24 05:37:06 2025.
