 Gaussian 16, Revision C.01,
 Gaussian 16:  ES64L-G16RevC.01  3-Jul-2019

 -----------------------------------------------------------------
 #P M062X/Def2TZVPP Symm(None) scf(xqc) pop(None) freq opt(CalcFC)
 -----------------------------------------------------------------

 ------------------------------
 Gaussian input prepared by ASE
 ------------------------------
 Symbolic Z-matrix:
 Charge =  0 Multiplicity = 1

 SCF Done:  E(RM062X) =  -1199.87165138     A.U. after   13 cycles
 SCF Done:  E(RM062X) =  -1199.91078704     A.U. after   12 cycles
 SCF Done:  E(RM062X) =  -1199.93527538     A.U. after   12 cycles
 SCF Done:  E(RM062X) =  -1199.93691278     A.U. after   11 cycles
 SCF Done:  E(RM062X) =  -1199.93785318     A.U. after   12 cycles
 SCF Done:  E(RM062X) =  -1199.93830791     A.U. after   11 cycles
 SCF Done:  E(RM062X) =  -1199.93899991     A.U. after   12 cycles
 SCF Done:  E(RM062X) =  -1199.93945315     A.U. after   11 cycles
 SCF Done:  E(RM062X) =  -1199.93964635     A.U. after   10 cycles
 SCF Done:  E(RM062X) =  -1199.93980094     A.U. after   10 cycles
 SCF Done:  E(RM062X) =  -1199.94029612     A.U. after   11 cycles
 SCF Done:  E(RM062X) =  -1199.94048554     A.U. after   12 cycles
 SCF Done:  E(RM062X) =  -1199.94060663     A.U. after    9 cycles
 SCF Done:  E(RM062X) =  -1199.94066685     A.U. after   10 cycles
 SCF Done:  E(RM062X) =  -1199.94067077     A.U. after    8 cycles
 SCF Done:  E(RM062X) =  -1199.94067284     A.U. after    8 cycles
 SCF Done:  E(RM062X) =  -1199.94067441     A.U. after    9 cycles
 SCF Done:  E(RM062X) =  -1199.94067459     A.U. after    6 cycles
 SCF Done:  E(RM062X) =  -1199.94067473     A.U. after    7 cycles
 Optimization completed.
    -- Stationary point found.
 Normal termination of Gaussian 16 at Sat May 24 06:21:23 2025.

 ---------------------------------------------------------------------
 #P Geom=AllCheck Guess=TCheck SCRF=Check GenChk RM062X/def2TZVPP Freq
 ---------------------------------------------------------------------

 Structure from the checkpoint file:  "2003846667223680600001_r12_insertion_R_9_1_10_IRC_R_prod.chk"
 ------------------------------
 Gaussian input prepared by ASE
 ------------------------------
 Charge =  0 Multiplicity = 1

                          Input orientation:
 ---------------------------------------------------------------------
 Center     Atomic      Atomic             Coordinates (Angstroms)
 Number     Number       Type             X           Y           Z
 ---------------------------------------------------------------------
      1          6           0       -0.941841   -0.998474    0.467462
      2          6           0       -0.462998    0.423927    0.096879
      3          9           0       -1.365222    0.989964   -0.699696
      4          9           0       -0.352670    1.141969    1.221463
      5         16           0        1.172190    0.459253   -0.753222
      6          8           0        2.110479   -0.138501    0.127846
      7          8           0        0.974552    0.045565   -2.087618
      8          8           0        1.390945    2.015666   -0.771274
      9          9           0       -2.176526   -0.919769    0.942898
     10          9           0       -0.158666   -1.524884    1.392013
     11          9           0       -0.939225   -1.773068   -0.605176
     12          1           0        1.838540    2.301311    0.038406
 ---------------------------------------------------------------------

 SCF Done:  E(RM062X) =  -1199.94067473     A.U. after    1 cycles

 Isotropic polarizability for W=    0.000000       53.47 Bohr**3.
 End of Minotr F.D. properties file   721 does not exist.

                      1                      2                      3
                      A                      A                      A
 Frequencies --     24.2279                68.7488               127.4349
 Red. masses --     14.4732                14.0608                14.8643
 Frc consts  --      0.0050                 0.0392                 0.1422
 IR Inten    --      1.3028                 0.8638                 1.2804

                      4                      5                      6
                      A                      A                      A
 Frequencies --    194.7934               220.4675               238.4655
 Red. masses --      9.7510                16.8157                 8.0756
 Frc consts  --      0.2180                 0.4816                 0.2706
 IR Inten    --      7.3221                 1.5542                11.2907

                      7                      8                      9
                      A                      A                      A
 Frequencies --    283.8736               318.5102               323.5918
 Red. masses --     13.9710                 5.4967                18.0164
 Frc consts  --      0.6633                 0.3285                 1.1115
 IR Inten    --      0.4259                14.1289                 0.0594

                     10                     11                     12
                      A                      A                      A
 Frequencies --    367.9955               376.3650               446.8773
 Red. masses --      1.8382                13.4661                 4.5541
 Frc consts  --      0.1467                 1.1239                 0.5358
 IR Inten    --     53.8350                 2.3158                23.7151

                     13                     14                     15
                      A                      A                      A
 Frequencies --    499.9538               507.0262               544.1250
 Red. masses --      7.2470                14.6621                17.7472
 Frc consts  --      1.0673                 2.2208                 3.0958
 IR Inten    --      7.9435                32.7968                25.4068

                     16                     17                     18
                      A                      A                      A
 Frequencies --    608.9719               630.8991               664.0602
 Red. masses --     17.1570                19.4239                17.6348
 Frc consts  --      3.7488                 4.5552                 4.5818
 IR Inten    --      3.6586               110.7663                47.2849

                     19                     20                     21
                      A                      A                      A
 Frequencies --    781.7540               897.9232              1041.4647
 Red. masses --     17.3618                16.5408                13.9961
 Frc consts  --      6.2515                 7.8575                 8.9443
 IR Inten    --     19.4163               227.8014                28.8155

                     22                     23                     24
                      A                      A                      A
 Frequencies --   1141.9773              1200.9634              1256.2880
 Red. masses --      1.1813                13.6383                15.8715
 Frc consts  --      0.9077                11.5897                14.7587
 IR Inten    --     93.2566               248.4657                17.4580

                     25                     26                     27
                      A                      A                      A
 Frequencies --   1263.7554              1302.1971              1305.1919
 Red. masses --     13.3508                13.8398                13.2064
 Frc consts  --     12.5627                13.8272                13.2551
 IR Inten    --     88.9448               319.8118               235.9827

                     28                     29                     30
                      A                      A                      A
 Frequencies --   1389.2984              1503.9079              3805.6607
 Red. masses --     12.6848                15.4532                 1.0657
 Frc consts  --     14.4253                20.5925                 9.0934
 IR Inten    --     91.6304               296.1051               188.0075

 - Thermochemistry -
 -------------------
 Temperature   298.150 Kelvin.  Pressure   1.00000 Atm.
 Atom     1 has atomic number  6 and mass  12.00000

 Molecular mass:   199.95666 amu.
 Principal axes and moments of inertia in atomic units:
                           1         2         3
     Eigenvalues --  1118.822382148.370362266.86272
           X            0.73703  -0.49851   0.45636
           Y            0.53258   0.84411   0.06195
           Z           -0.41610   0.19739   0.88763
 This molecule is an asymmetric top.
 Rotational symmetry number  1.
 Warning -- assumption of classical behavior for rotation
           may cause significant error
 Rotational temperatures (Kelvin)      0.07742     0.04032     0.03821
 Rotational constants (GHZ):           1.61307     0.84005     0.79614
 Zero-point vibrational energy     139584.9 (Joules/Mol)
                                   33.36159 (Kcal/Mol)
 Warning -- explicit consideration of  16 degrees of freedom as
           vibrations may cause significant error
 Vibrational temperatures:     34.86    98.91   183.35   280.26   317.20
          (Kelvin)            343.10   408.43   458.27   465.58   529.46
                              541.51   642.96   719.32   729.50   782.87
                              876.17   907.72   955.43  1124.77  1291.91
                             1498.44  1643.05  1727.92  1807.52  1818.26
                             1873.57  1877.88  1998.89  2163.79  5475.50

 Zero-point correction=                           0.053165 (Hartree/Particle)
 Thermal correction to Energy=                    0.063471
 Thermal correction to Enthalpy=                  0.064416
 Thermal correction to Gibbs Free Energy=         0.015937
 Sum of electronic and zero-point Energies=          -1199.887510
 Sum of electronic and thermal Energies=             -1199.877203
 Sum of electronic and thermal Enthalpies=           -1199.876259
 Sum of electronic and thermal Free Energies=        -1199.924738

                     E (Thermal)             CV                S
                      KCal/Mol        Cal/Mol-Kelvin    Cal/Mol-Kelvin
 Total                   39.829             35.975            102.033
 Electronic               0.000              0.000              0.000
 Translational            0.889              2.981             41.783
 Rotational               0.889              2.981             30.078
 Vibrational             38.051             30.013             30.171
 Vibration     1          0.593              1.985              6.253
 Vibration     2          0.598              1.969              4.189
 Vibration     3          0.611              1.926              2.984
 Vibration     4          0.635              1.847              2.182
 Vibration     5          0.647              1.810              1.955
 Vibration     6          0.656              1.782              1.814
 Vibration     7          0.682              1.704              1.510
 Vibration     8          0.705              1.638              1.318
 Vibration     9          0.708              1.628              1.292
 Vibration    10          0.741              1.538              1.088
 Vibration    11          0.747              1.520              1.054
 Vibration    12          0.806              1.368              0.805
 Vibration    13          0.855              1.250              0.658
 Vibration    14          0.862              1.234              0.641
 Vibration    15          0.899              1.153              0.556
 Vibration    16          0.968              1.013              0.434

 Optimization completed.
    -- Stationary point found.
 Normal termination of Gaussian 16 at Sat May 24 06:26:11 2025.
