 Gaussian 16, Revision C.01,
 Gaussian 16:  ES64L-G16RevC.01  3-Jul-2019

 -----------------------------------------------------------------
 #P M062X/Def2TZVPP Symm(None) scf(xqc) pop(None) freq opt(CalcFC)
 -----------------------------------------------------------------

 ------------------------------
 Gaussian input prepared by ASE
 ------------------------------
 Symbolic Z-matrix:
 Charge =  0 Multiplicity = 1

 SCF Done:  E(RM062X) =  -1199.86461977     A.U. after   13 cycles
 SCF Done:  E(RM062X) =  -1199.89803024     A.U. after   12 cycles
 SCF Done:  E(RM062X) =  -1199.92916964     A.U. after   13 cycles
 SCF Done:  E(RM062X) =  -1199.92924738     A.U. after   12 cycles
 SCF Done:  E(RM062X) =  -1199.93611389     A.U. after   13 cycles
 SCF Done:  E(RM062X) =  -1199.92841662     A.U. after   12 cycles
 SCF Done:  E(RM062X) =  -1199.93794151     A.U. after   11 cycles
 SCF Done:  E(RM062X) =  -1199.93838402     A.U. after   11 cycles
 SCF Done:  E(RM062X) =  -1199.93871323     A.U. after   10 cycles
 SCF Done:  E(RM062X) =  -1199.93943566     A.U. after   11 cycles
 SCF Done:  E(RM062X) =  -1199.94062851     A.U. after   11 cycles
 SCF Done:  E(RM062X) =  -1199.94065269     A.U. after    9 cycles
 SCF Done:  E(RM062X) =  -1199.94065727     A.U. after   10 cycles
 SCF Done:  E(RM062X) =  -1199.94066672     A.U. after    8 cycles
 SCF Done:  E(RM062X) =  -1199.94067350     A.U. after   10 cycles
 SCF Done:  E(RM062X) =  -1199.94068067     A.U. after   10 cycles
 SCF Done:  E(RM062X) =  -1199.94068137     A.U. after    8 cycles
 SCF Done:  E(RM062X) =  -1199.94068138     A.U. after    7 cycles
 SCF Done:  E(RM062X) =  -1199.94068139     A.U. after    6 cycles
 Optimization completed.
    -- Stationary point found.
 Normal termination of Gaussian 16 at Sat May 24 08:07:44 2025.

 ---------------------------------------------------------------------
 #P Geom=AllCheck Guess=TCheck SCRF=Check GenChk RM062X/def2TZVPP Freq
 ---------------------------------------------------------------------

 Structure from the checkpoint file:  "2003846667223680600001_r13_insertion_ROR_1_2_5_6_IRC_R_prod.chk"
 ------------------------------
 Gaussian input prepared by ASE
 ------------------------------
 Charge =  0 Multiplicity = 1

                          Input orientation:
 ---------------------------------------------------------------------
 Center     Atomic      Atomic             Coordinates (Angstroms)
 Number     Number       Type             X           Y           Z
 ---------------------------------------------------------------------
      1          6           0       -1.186456   -0.669683    0.479039
      2          6           0       -0.067176   -0.342699   -0.535826
      3          9           0        0.728118   -1.413438   -0.651455
      4          9           0       -0.618762   -0.074967   -1.716125
      5         16           0        0.986839    1.087201   -0.044117
      6          8           0        0.251807    2.267966   -0.281394
      7          8           0        1.572079    0.759534    1.206493
      8          8           0        2.073183    0.974694   -1.174379
      9          9           0       -1.922932    0.405735    0.705816
     10          9           0       -1.954833   -1.622453   -0.029551
     11          9           0       -0.669605   -1.096821    1.617305
     12          1           0        2.790020    0.387270   -0.894035
 ---------------------------------------------------------------------

 SCF Done:  E(RM062X) =  -1199.94068139     A.U. after    1 cycles

 Isotropic polarizability for W=    0.000000       53.45 Bohr**3.
 End of Minotr F.D. properties file   721 does not exist.

                      1                      2                      3
                      A                      A                      A
 Frequencies --     28.0134                70.4836               128.4761
 Red. masses --     14.8379                13.6333                14.2559
 Frc consts  --      0.0069                 0.0399                 0.1386
 IR Inten    --      1.1786                 1.0523                 1.4551

                      4                      5                      6
                      A                      A                      A
 Frequencies --    193.5379               221.7289               237.2784
 Red. masses --      7.9932                16.4775                 7.4510
 Frc consts  --      0.1764                 0.4773                 0.2472
 IR Inten    --      9.9525                 1.9003                12.6563

                      7                      8                      9
                      A                      A                      A
 Frequencies --    283.7804               314.2744               323.2533
 Red. masses --     12.8321                 3.8660                17.8837
 Frc consts  --      0.6089                 0.2250                 1.1010
 IR Inten    --      0.2043                23.6606                 0.0437

                     10                     11                     12
                      A                      A                      A
 Frequencies --    355.7633               375.9699               444.5744
 Red. masses --      2.0657                17.7459                 5.3908
 Frc consts  --      0.1540                 1.4779                 0.6278
 IR Inten    --     48.1464                 0.2681                19.8349

                     13                     14                     15
                      A                      A                      A
 Frequencies --    499.6702               507.9947               543.9288
 Red. masses --      7.7237                14.6158                17.7781
 Frc consts  --      1.1362                 2.2222                 3.0990
 IR Inten    --      6.9712                33.0259                25.0123

                     16                     17                     18
                      A                      A                      A
 Frequencies --    608.9781               631.3996               664.1123
 Red. masses --     17.1476                19.4219                17.6432
 Frc consts  --      3.7468                 4.5620                 4.5847
 IR Inten    --      3.6728               108.9731                48.3401

                     19                     20                     21
                      A                      A                      A
 Frequencies --    781.9615               898.4614              1041.4279
 Red. masses --     17.3714                16.5672                14.0244
 Frc consts  --      6.2583                 7.8795                 8.9617
 IR Inten    --     19.3037               227.9855                28.1852

                     22                     23                     24
                      A                      A                      A
 Frequencies --   1140.1263              1201.5157              1257.8399
 Red. masses --      1.1813                13.6060                15.6689
 Frc consts  --      0.9047                11.5728                14.6063
 IR Inten    --     93.1055               245.6026                22.6557

                     25                     26                     27
                      A                      A                      A
 Frequencies --   1264.1168              1302.4797              1305.7415
 Red. masses --     13.4729                13.9223                13.2000
 Frc consts  --     12.6848                13.9157                13.2599
 IR Inten    --     84.7135               323.2745               235.0013

                     28                     29                     30
                      A                      A                      A
 Frequencies --   1390.4199              1506.2852              3808.6125
 Red. masses --     12.6883                15.5448                 1.0657
 Frc consts  --     14.4525                20.7802                 9.1075
 IR Inten    --     90.6032               295.9148               187.9862

 - Thermochemistry -
 -------------------
 Temperature   298.150 Kelvin.  Pressure   1.00000 Atm.
 Atom     1 has atomic number  6 and mass  12.00000

 Molecular mass:   199.95666 amu.
 Principal axes and moments of inertia in atomic units:
                           1         2         3
     Eigenvalues --  1118.743242148.265862266.73049
           X            0.77455  -0.17263  -0.60850
           Y            0.60061   0.50245   0.62195
           Z           -0.19837   0.84720  -0.49285
 This molecule is an asymmetric top.
 Rotational symmetry number  1.
 Warning -- assumption of classical behavior for rotation
           may cause significant error
 Rotational temperatures (Kelvin)      0.07742     0.04032     0.03821
 Rotational constants (GHZ):           1.61319     0.84009     0.79619
 Zero-point vibrational energy     139557.6 (Joules/Mol)
                                   33.35506 (Kcal/Mol)
 Warning -- explicit consideration of  16 degrees of freedom as
           vibrations may cause significant error
 Vibrational temperatures:     40.31   101.41   184.85   278.46   319.02
          (Kelvin)            341.39   408.30   452.17   465.09   511.86
                              540.94   639.64   718.91   730.89   782.59
                              876.18   908.44   955.51  1125.07  1292.69
                             1498.38  1640.39  1728.71  1809.75  1818.78
                             1873.98  1878.67  2000.50  2167.21  5479.74

 Zero-point correction=                           0.053155 (Hartree/Particle)
 Thermal correction to Energy=                    0.063469
 Thermal correction to Enthalpy=                  0.064413
 Thermal correction to Gibbs Free Energy=         0.016058
 Sum of electronic and zero-point Energies=          -1199.887527
 Sum of electronic and thermal Energies=             -1199.877212
 Sum of electronic and thermal Enthalpies=           -1199.876268
 Sum of electronic and thermal Free Energies=        -1199.924623

                     E (Thermal)             CV                S
                      KCal/Mol        Cal/Mol-Kelvin    Cal/Mol-Kelvin
 Total                   39.828             36.010            101.773
 Electronic               0.000              0.000              0.000
 Translational            0.889              2.981             41.783
 Rotational               0.889              2.981             30.078
 Vibrational             38.050             30.048             29.911
 Vibration     1          0.593              1.984              5.965
 Vibration     2          0.598              1.968              4.140
 Vibration     3          0.611              1.925              2.969
 Vibration     4          0.635              1.849              2.194
 Vibration     5          0.648              1.808              1.945
 Vibration     6          0.656              1.784              1.823
 Vibration     7          0.682              1.704              1.511
 Vibration     8          0.702              1.646              1.340
 Vibration     9          0.708              1.629              1.294
 Vibration    10          0.731              1.563              1.141
 Vibration    11          0.747              1.521              1.055
 Vibration    12          0.804              1.373              0.812
 Vibration    13          0.855              1.251              0.659
 Vibration    14          0.863              1.232              0.638
 Vibration    15          0.899              1.153              0.557
 Vibration    16          0.968              1.013              0.434

 Optimization completed.
    -- Stationary point found.
 Normal termination of Gaussian 16 at Sat May 24 08:12:21 2025.
