 Gaussian 16, Revision C.01,
 Gaussian 16:  ES64L-G16RevC.01  3-Jul-2019

 ----------------------------------------------------------------------
 #P M062X/Def2TZVPP Symm(None) scf(xqc) pop(None) geom(AllCheck,NoKeepC
 onstants) guess(Read) irc(RCFC,forward,MaxPoints=100,StepSize=2)
 ----------------------------------------------------------------------

 Structure from the checkpoint file:  "2003846667223680600001_r13_insertion_ROR_3_2_5_6_IRC_F.chk"
 ------------------------------
 Gaussian input prepared by ASE
 ------------------------------
 Charge =  0 Multiplicity = 1

 SCF Done:  E(RM062X) =  -1199.67433492     A.U. after   13 cycles
 SCF Done:  E(RM062X) =  -1199.67449342     A.U. after   15 cycles
 SCF Done:  E(RM062X) =  -1199.67475430     A.U. after   15 cycles
 SCF Done:  E(RM062X) =  -1199.67511531     A.U. after   15 cycles
 SCF Done:  E(RM062X) =  -1199.67557483     A.U. after   15 cycles
 SCF Done:  E(RM062X) =  -1199.67613194     A.U. after   15 cycles
 SCF Done:  E(RM062X) =  -1199.67678653     A.U. after   15 cycles
 SCF Done:  E(RM062X) =  -1199.67753926     A.U. after   15 cycles
 SCF Done:  E(RM062X) =  -1199.67839159     A.U. after   15 cycles
 SCF Done:  E(RM062X) =  -1199.67934563     A.U. after   15 cycles
 SCF Done:  E(RM062X) =  -1199.87670103     A.U. after   10 cycles
 SCF Done:  E(RM062X) =  -1199.87908595     A.U. after    9 cycles
 SCF Done:  E(RM062X) =  -1199.88142802     A.U. after    9 cycles
 SCF Done:  E(RM062X) =  -1199.88372264     A.U. after    9 cycles
 SCF Done:  E(RM062X) =  -1199.88596504     A.U. after    9 cycles
 SCF Done:  E(RM062X) =  -1199.88815041     A.U. after    9 cycles
 SCF Done:  E(RM062X) =  -1199.89027414     A.U. after    9 cycles
 SCF Done:  E(RM062X) =  -1199.89233185     A.U. after    9 cycles
 SCF Done:  E(RM062X) =  -1199.89431953     A.U. after    9 cycles
 SCF Done:  E(RM062X) =  -1199.89623349     A.U. after    9 cycles

                          Input orientation:
 ---------------------------------------------------------------------
 Center     Atomic      Atomic             Coordinates (Angstroms)
 Number     Number       Type             X           Y           Z
 ---------------------------------------------------------------------
      1          6           0        0.074665   -1.352514   -0.728699
      2          6           0       -0.108297   -0.356165    0.459228
      3          9           0       -1.567154   -0.321284    0.535623
      4          9           0        0.634845   -0.847987    1.469055
      5         16           0        0.143352    1.479650    0.427907
      6          8           0       -1.137140    1.954816    0.761771
      7          8           0        1.295781    1.863277    1.160960
      8          8           0        0.375595    1.719061   -1.107439
      9          9           0       -0.471065   -0.799783   -1.789805
     10          9           0        1.276992   -1.806973   -1.086697
     11          9           0       -0.612349   -2.399785   -0.296399
     12          1           0        1.299943    1.945664   -1.283481
 ---------------------------------------------------------------------

 Normal termination of Gaussian 16 at Sat May 24 07:29:56 2025.
