 Gaussian 16, Revision C.01,
 Gaussian 16:  ES64L-G16RevC.01  3-Jul-2019

 ----------------------------------------------------------------------
 #P M062X/Def2TZVPP Symm(None) scf(xqc) pop(None) geom(AllCheck,NoKeepC
 onstants) guess(Read) irc(RCFC,forward,MaxPoints=100,StepSize=2)
 ----------------------------------------------------------------------

 Structure from the checkpoint file:  "2003846667223680600001_r13_insertion_ROR_1_2_5_6_IRC_F.chk"
 ------------------------------
 Gaussian input prepared by ASE
 ------------------------------
 Charge =  0 Multiplicity = 1

 SCF Done:  E(RM062X) =  -1199.76543321     A.U. after   10 cycles
 SCF Done:  E(RM062X) =  -1199.76550438     A.U. after   11 cycles
 SCF Done:  E(RM062X) =  -1199.76562477     A.U. after   11 cycles
 SCF Done:  E(RM062X) =  -1199.76579530     A.U. after   11 cycles
 SCF Done:  E(RM062X) =  -1199.76601679     A.U. after   11 cycles
 SCF Done:  E(RM062X) =  -1199.76628995     A.U. after   11 cycles
 SCF Done:  E(RM062X) =  -1199.76661535     A.U. after   11 cycles
 SCF Done:  E(RM062X) =  -1199.76699340     A.U. after   11 cycles
 SCF Done:  E(RM062X) =  -1199.76742433     A.U. after   11 cycles
 SCF Done:  E(RM062X) =  -1199.76790819     A.U. after   11 cycles
 SCF Done:  E(RM062X) =  -1199.82673083     A.U. after   11 cycles
 SCF Done:  E(RM062X) =  -1199.82707269     A.U. after   11 cycles
 SCF Done:  E(RM062X) =  -1199.82741324     A.U. after   11 cycles
 SCF Done:  E(RM062X) =  -1199.82775276     A.U. after   11 cycles
 SCF Done:  E(RM062X) =  -1199.82809200     A.U. after   11 cycles
 SCF Done:  E(RM062X) =  -1199.82843146     A.U. after   11 cycles
 SCF Done:  E(RM062X) =  -1199.82877162     A.U. after   11 cycles
 SCF Done:  E(RM062X) =  -1199.82911288     A.U. after   11 cycles
 SCF Done:  E(RM062X) =  -1199.82945563     A.U. after   11 cycles
 SCF Done:  E(RM062X) =  -1199.82980014     A.U. after   11 cycles

                          Input orientation:
 ---------------------------------------------------------------------
 Center     Atomic      Atomic             Coordinates (Angstroms)
 Number     Number       Type             X           Y           Z
 ---------------------------------------------------------------------
      1          6           0       -1.469171    0.245216    0.616295
      2          6           0        0.510746   -1.310581   -0.505487
      3          9           0        1.583950   -2.075270   -0.432483
      4          9           0        0.208576   -1.181797   -1.811617
      5         16           0        1.077419    0.519320   -0.087947
      6          8           0       -0.424887    1.048933    0.154694
      7          8           0        1.869186    0.682356    1.082332
      8          8           0        1.372541    1.692471   -1.140438
      9          9           0       -2.389804    1.079448    1.053617
     10          9           0       -1.991649   -0.464611   -0.362529
     11          9           0       -1.113752   -0.540650    1.610093
     12          1           0        2.323796    1.875093   -1.136572
 ---------------------------------------------------------------------

 Normal termination of Gaussian 16 at Sat May 24 07:55:16 2025.
