 Gaussian 16, Revision C.01,
 Gaussian 16:  ES64L-G16RevC.01  3-Jul-2019

 -----------------------------------------------------------------
 #P M062X/Def2TZVPP Symm(None) scf(xqc) pop(None) freq opt(CalcFC)
 -----------------------------------------------------------------

 ------------------------------
 Gaussian input prepared by ASE
 ------------------------------
 Symbolic Z-matrix:
 Charge =  0 Multiplicity = 1

 SCF Done:  E(RM062X) =  -1199.88995109     A.U. after   13 cycles
 SCF Done:  E(RM062X) =  -1199.91510024     A.U. after   13 cycles
 SCF Done:  E(RM062X) =  -1199.93727040     A.U. after   13 cycles
 SCF Done:  E(RM062X) =  -1199.93976541     A.U. after   11 cycles
 SCF Done:  E(RM062X) =  -1199.94037812     A.U. after   11 cycles
 SCF Done:  E(RM062X) =  -1199.94059815     A.U. after   11 cycles
 SCF Done:  E(RM062X) =  -1199.94064120     A.U. after   10 cycles
 SCF Done:  E(RM062X) =  -1199.94065592     A.U. after    8 cycles
 SCF Done:  E(RM062X) =  -1199.94066090     A.U. after    8 cycles
 SCF Done:  E(RM062X) =  -1199.94066487     A.U. after    9 cycles
 SCF Done:  E(RM062X) =  -1199.94066904     A.U. after    9 cycles
 SCF Done:  E(RM062X) =  -1199.94067161     A.U. after    9 cycles
 SCF Done:  E(RM062X) =  -1199.94067272     A.U. after    7 cycles
 SCF Done:  E(RM062X) =  -1199.94067339     A.U. after    8 cycles
 SCF Done:  E(RM062X) =  -1199.94067345     A.U. after    7 cycles
 Optimization completed.
    -- Stationary point found.
 Normal termination of Gaussian 16 at Sat May 24 05:41:03 2025.

 ---------------------------------------------------------------------
 #P Geom=AllCheck Guess=TCheck SCRF=Check GenChk RM062X/def2TZVPP Freq
 ---------------------------------------------------------------------

 Structure from the checkpoint file:  "2003846667223680600001_r12_insertion_R_8_5_6_IRC_F_prod.chk"
 ------------------------------
 Gaussian input prepared by ASE
 ------------------------------
 Charge =  0 Multiplicity = 1

                          Input orientation:
 ---------------------------------------------------------------------
 Center     Atomic      Atomic             Coordinates (Angstroms)
 Number     Number       Type             X           Y           Z
 ---------------------------------------------------------------------
      1          6           0       -1.026664   -1.019685    0.082644
      2          6           0       -0.398561    0.385065   -0.065375
      3          9           0       -0.726788    0.873027   -1.268040
      4          9           0       -0.889919    1.180086    0.880961
      5         16           0        1.440419    0.393040    0.059857
      6          8           0        1.781205    0.246298    1.421143
      7          8           0        1.929645   -0.450115   -0.971502
      8          8           0        1.693891    1.894681   -0.329257
      9          9           0       -0.688132   -1.788311   -0.937072
     10          9           0       -0.623645   -1.581623    1.210548
     11          9           0       -2.345868   -0.893716    0.107726
     12          1           0        1.789634    1.981370   -1.288862
 ---------------------------------------------------------------------

 SCF Done:  E(RM062X) =  -1199.94067345     A.U. after    1 cycles

 Isotropic polarizability for W=    0.000000       53.47 Bohr**3.
 End of Minotr F.D. properties file   721 does not exist.

                      1                      2                      3
                      A                      A                      A
 Frequencies --     20.4696                69.1261               128.2827
 Red. masses --     14.6018                13.9078                14.8542
 Frc consts  --      0.0036                 0.0392                 0.1440
 IR Inten    --      1.2747                 0.9397                 1.2837

                      4                      5                      6
                      A                      A                      A
 Frequencies --    193.4334               220.8524               238.0503
 Red. masses --      9.7441                17.0103                 8.1049
 Frc consts  --      0.2148                 0.4888                 0.2706
 IR Inten    --      7.2421                 1.5585                11.3152

                      7                      8                      9
                      A                      A                      A
 Frequencies --    283.6865               317.4648               323.2844
 Red. masses --     13.7963                 5.2075                17.8057
 Frc consts  --      0.6542                 0.3092                 1.0964
 IR Inten    --      0.4065                15.5079                 0.0469

                     10                     11                     12
                      A                      A                      A
 Frequencies --    366.1052               376.0396               447.0396
 Red. masses --      1.8398                15.5457                 4.5965
 Frc consts  --      0.1453                 1.2952                 0.5412
 IR Inten    --     53.8400                 1.1781                23.2748

                     13                     14                     15
                      A                      A                      A
 Frequencies --    500.0291               506.9761               543.7341
 Red. masses --      7.2027                14.4434                17.7425
 Frc consts  --      1.0611                 2.1872                 3.0906
 IR Inten    --      7.5255                33.4894                25.6934

                     16                     17                     18
                      A                      A                      A
 Frequencies --    609.0131               630.3364               663.8000
 Red. masses --     17.1511                19.4383                17.6046
 Frc consts  --      3.7480                 4.5504                 4.5704
 IR Inten    --      3.6924               111.4377                46.0957

                     19                     20                     21
                      A                      A                      A
 Frequencies --    781.7051               896.6156              1040.5397
 Red. masses --     17.3496                16.5889                14.0246
 Frc consts  --      6.2464                 7.8574                 8.9466
 IR Inten    --     19.8851               228.5880                28.8952

                     22                     23                     24
                      A                      A                      A
 Frequencies --   1139.9979              1200.9695              1256.4292
 Red. masses --      1.1814                13.6118                15.9151
 Frc consts  --      0.9046                11.5672                14.8026
 IR Inten    --     93.3946               246.5189                15.6134

                     25                     26                     27
                      A                      A                      A
 Frequencies --   1264.0513              1302.0645              1305.8289
 Red. masses --     13.3417                13.8480                13.2010
 Frc consts  --     12.5600                13.8326                13.2627
 IR Inten    --     90.8281               321.6173               234.8587

                     28                     29                     30
                      A                      A                      A
 Frequencies --   1389.7932              1503.2562              3808.0063
 Red. masses --     12.6851                15.4747                 1.0657
 Frc consts  --     14.4360                20.6034                 9.1047
 IR Inten    --     91.0153               296.5746               188.1514

 - Thermochemistry -
 -------------------
 Temperature   298.150 Kelvin.  Pressure   1.00000 Atm.
 Atom     1 has atomic number  6 and mass  12.00000

 Molecular mass:   199.95666 amu.
 Principal axes and moments of inertia in atomic units:
                           1         2         3
     Eigenvalues --  1118.795312148.205072266.73796
           X            0.85714  -0.51102  -0.06461
           Y            0.51464   0.84439   0.14882
           Z           -0.02149  -0.16081   0.98675
 This molecule is an asymmetric top.
 Rotational symmetry number  1.
 Warning -- assumption of classical behavior for rotation
           may cause significant error
 Rotational temperatures (Kelvin)      0.07742     0.04032     0.03821
 Rotational constants (GHZ):           1.61311     0.84012     0.79618
 Zero-point vibrational energy     139526.3 (Joules/Mol)
                                   33.34759 (Kcal/Mol)
 Warning -- explicit consideration of  16 degrees of freedom as
           vibrations may cause significant error
 Vibrational temperatures:     29.45    99.46   184.57   278.31   317.76
          (Kelvin)            342.50   408.16   456.76   465.13   526.74
                              541.04   643.19   719.43   729.43   782.31
                              876.23   906.91   955.06  1124.70  1290.03
                             1497.10  1640.20  1727.93  1807.72  1818.69
                             1873.38  1878.80  1999.60  2162.85  5478.87

 Zero-point correction=                           0.053143 (Hartree/Particle)
 Thermal correction to Energy=                    0.063462
 Thermal correction to Enthalpy=                  0.064407
 Thermal correction to Gibbs Free Energy=         0.015764
 Sum of electronic and zero-point Energies=          -1199.887531
 Sum of electronic and thermal Energies=             -1199.877211
 Sum of electronic and thermal Enthalpies=           -1199.876267
 Sum of electronic and thermal Free Energies=        -1199.924909

                     E (Thermal)             CV                S
                      KCal/Mol        Cal/Mol-Kelvin    Cal/Mol-Kelvin
 Total                   39.823             35.990            102.377
 Electronic               0.000              0.000              0.000
 Translational            0.889              2.981             41.783
 Rotational               0.889              2.981             30.078
 Vibrational             38.046             30.029             30.515
 Vibration     1          0.593              1.986              6.588
 Vibration     2          0.598              1.969              4.178
 Vibration     3          0.611              1.925              2.972
 Vibration     4          0.635              1.849              2.195
 Vibration     5          0.648              1.809              1.952
 Vibration     6          0.656              1.782              1.817
 Vibration     7          0.682              1.704              1.511
 Vibration     8          0.704              1.640              1.323
 Vibration     9          0.708              1.629              1.293
 Vibration    10          0.739              1.542              1.096
 Vibration    11          0.747              1.521              1.055
 Vibration    12          0.806              1.367              0.805
 Vibration    13          0.855              1.250              0.658
 Vibration    14          0.862              1.235              0.641
 Vibration    15          0.899              1.153              0.557
 Vibration    16          0.968              1.013              0.434

 Optimization completed.
    -- Stationary point found.
 Normal termination of Gaussian 16 at Sat May 24 05:45:22 2025.
