 Gaussian 16, Revision C.01,
 Gaussian 16:  ES64L-G16RevC.01  3-Jul-2019

 ----------------------------------------------------------------------
 #P M062X/Def2TZVPP Symm(None) scf(xqc) pop(None) opt(NoFreeze,TS,CalcA
 ll,NoEigentest,MaxCycle=999)
 ----------------------------------------------------------------------

 ------------------------------
 Gaussian input prepared by ASE
 ------------------------------
 Symbolic Z-matrix:
 Charge =  0 Multiplicity = 1

 SCF Done:  E(RM062X) =  -1199.81784150     A.U. after   13 cycles
 SCF Done:  E(RM062X) =  -1199.88258009     A.U. after   12 cycles
 SCF Done:  E(RM062X) =  -1199.91941860     A.U. after   12 cycles
 SCF Done:  E(RM062X) =  -1199.93083933     A.U. after   13 cycles
 SCF Done:  E(RM062X) =  -1199.93481285     A.U. after   13 cycles
 SCF Done:  E(RM062X) =  -1199.93640672     A.U. after   12 cycles
 SCF Done:  E(RM062X) =  -1199.93649911     A.U. after   10 cycles

 Isotropic polarizability for W=    0.000000       53.51 Bohr**3.
 End of Minotr F.D. properties file   721 does not exist.

 Optimization completed.
    -- Stationary point found.

                          Input orientation:
 ---------------------------------------------------------------------
 Center     Atomic      Atomic             Coordinates (Angstroms)
 Number     Number       Type             X           Y           Z
 ---------------------------------------------------------------------
      1          6           0       -0.621864   -1.361785    0.184103
      2          6           0        0.077935    0.018759   -0.093874
      3          9           0        0.037407    0.289777   -1.401834
      4          9           0       -0.554455    0.984834    0.564334
      5         16           0        1.849904    0.043503    0.410202
      6          8           0        1.890798   -0.013295    1.820238
      7          8           0        2.542472   -0.854612   -0.443123
      8          8           0        2.190790    1.519278   -0.012746
      9          9           0       -1.089480   -1.864094   -0.945666
     10          9           0        0.234545   -2.225670    0.710370
     11          9           0       -1.624890   -1.193668    1.027089
     12          1           0        2.514775    1.536560   -0.924900
 ---------------------------------------------------------------------

 ******    1 imaginary frequencies (negative Signs) ******

                      1                      2                      3
                      A                      A                      A
 Frequencies --    -52.2035                78.2451               145.3149
 Red. masses --     17.7297                11.7689                12.4254
 Frc consts  --      0.0285                 0.0425                 0.1546
 IR Inten    --      0.1530                 2.3696                 2.4240

                      4                      5                      6
                      A                      A                      A
 Frequencies --    187.8788               246.5206               285.7231
 Red. masses --     11.3737                 8.2185                13.2862
 Frc consts  --      0.2365                 0.2943                 0.6391
 IR Inten    --      5.7627                 9.2449                 2.0945

                      7                      8                      9
                      A                      A                      A
 Frequencies --    291.6048               317.7003               341.5214
 Red. masses --     16.4125                 4.3075                16.9398
 Frc consts  --      0.8223                 0.2562                 1.1641
 IR Inten    --      1.8784                20.3401                 0.3012

                     10                     11                     12
                      A                      A                      A
 Frequencies --    360.1651               382.2589               441.5239
 Red. masses --      1.9629                16.2095                 4.7093
 Frc consts  --      0.1500                 1.3955                 0.5409
 IR Inten    --     51.7560                 0.7230                19.8174

                     13                     14                     15
                      A                      A                      A
 Frequencies --    499.7936               507.8933               546.6008
 Red. masses --      7.2165                14.9246                17.8248
 Frc consts  --      1.0621                 2.2683                 3.1377
 IR Inten    --     20.2458                23.4665                27.2126

                     16                     17                     18
                      A                      A                      A
 Frequencies --    604.2223               631.1279               667.1877
 Red. masses --     17.1540                19.1666                17.6894
 Frc consts  --      3.6898                 4.4981                 4.6394
 IR Inten    --      3.3726               106.6154                46.5315

                     19                     20                     21
                      A                      A                      A
 Frequencies --    781.8934               895.9348              1030.9720
 Red. masses --     17.2989                16.5071                14.0898
 Frc consts  --      6.2311                 7.8068                 8.8237
 IR Inten    --     21.5679               231.0601                18.6158

                     22                     23                     24
                      A                      A                      A
 Frequencies --   1141.1636              1197.7519              1249.6056
 Red. masses --      1.1832                13.5872                16.2124
 Frc consts  --      0.9078                11.4846                14.9157
 IR Inten    --     92.0104               282.2526                 8.8855

                     25                     26                     27
                      A                      A                      A
 Frequencies --   1263.0004              1300.7346              1306.5131
 Red. masses --     13.2347                13.1751                13.6900
 Frc consts  --     12.4386                13.1335                13.7683
 IR Inten    --    142.2519               225.9634               284.3158

                     28                     29                     30
                      A                      A                      A
 Frequencies --   1356.6496              1502.1486              3810.7206
 Red. masses --     12.8946                15.3632                 1.0656
 Frc consts  --     13.9828                20.4248                 9.1175
 IR Inten    --     86.2787               289.9766               190.1083

 - Thermochemistry -
 -------------------
 Temperature   298.150 Kelvin.  Pressure   1.00000 Atm.
 Atom     1 has atomic number  6 and mass  12.00000

 Molecular mass:   199.95666 amu.
 Principal axes and moments of inertia in atomic units:
                           1         2         3
     Eigenvalues --  1124.680102157.270182286.16993
           X            0.85271  -0.44934  -0.26643
           Y            0.51902   0.78658   0.33453
           Z            0.05925  -0.42354   0.90394
 This molecule is an asymmetric top.
 Rotational symmetry number  1.
 Warning -- assumption of classical behavior for rotation
           may cause significant error
 Rotational temperatures (Kelvin)      0.07701     0.04015     0.03789
 Rotational constants (GHZ):           1.60467     0.83659     0.78942
    1 imaginary frequencies ignored.
 Zero-point vibrational energy     139797.8 (Joules/Mol)
                                   33.41248 (Kcal/Mol)
 Warning -- explicit consideration of  15 degrees of freedom as
           vibrations may cause significant error
 Vibrational temperatures:    112.58   209.08   270.32   354.69   411.09
          (Kelvin)            419.55   457.10   491.37   518.20   549.99
                              635.25   719.09   730.75   786.44   869.34
                              908.05   959.93  1124.97  1289.05  1483.34
                             1641.88  1723.30  1797.90  1817.18  1871.47
                             1879.78  1951.92  2161.26  5482.78

 Zero-point correction=                           0.053246 (Hartree/Particle)
 Thermal correction to Energy=                    0.062500
 Thermal correction to Enthalpy=                  0.063444
 Thermal correction to Gibbs Free Energy=         0.018427
 Sum of electronic and zero-point Energies=          -1199.883253
 Sum of electronic and thermal Energies=             -1199.874000
 Sum of electronic and thermal Enthalpies=           -1199.873055
 Sum of electronic and thermal Free Energies=        -1199.918072

                     E (Thermal)             CV                S
                      KCal/Mol        Cal/Mol-Kelvin    Cal/Mol-Kelvin
 Total                   39.219             33.850             94.746
 Electronic               0.000              0.000              0.000
 Translational            0.889              2.981             41.783
 Rotational               0.889              2.981             30.096
 Vibrational             37.442             27.889             22.867
 Vibration     1          0.600              1.964              3.934
 Vibration     2          0.617              1.908              2.733
 Vibration     3          0.633              1.856              2.249
 Vibration     4          0.661              1.769              1.755
 Vibration     5          0.684              1.700              1.499
 Vibration     6          0.687              1.689              1.465
 Vibration     7          0.704              1.640              1.322
 Vibration     8          0.721              1.592              1.205
 Vibration     9          0.735              1.554              1.121
 Vibration    10          0.752              1.508              1.030
 Vibration    11          0.801              1.380              0.822
 Vibration    12          0.855              1.250              0.659
 Vibration    13          0.863              1.233              0.639
 Vibration    14          0.902              1.147              0.551
 Vibration    15          0.963              1.023              0.442

 Normal termination of Gaussian 16 at Sat May 24 03:19:41 2025.
