 Gaussian 16, Revision C.01,
 Gaussian 16:  ES64L-G16RevC.01  3-Jul-2019

 ----------------------------------------------------------------------
 #P M062X/Def2TZVPP Symm(None) scf(xqc) pop(None) geom(AllCheck,NoKeepC
 onstants) guess(Read) irc(RCFC,reverse,MaxPoints=100,StepSize=2)
 ----------------------------------------------------------------------

 Structure from the checkpoint file:  "2003846667223680600001_r13_insertion_ROR_3_2_5_6_IRC_R.chk"
 ------------------------------
 Gaussian input prepared by ASE
 ------------------------------
 Charge =  0 Multiplicity = 1

 SCF Done:  E(RM062X) =  -1199.67433607     A.U. after   13 cycles
 SCF Done:  E(RM062X) =  -1199.67450194     A.U. after   15 cycles
 SCF Done:  E(RM062X) =  -1199.67478240     A.U. after   15 cycles
 SCF Done:  E(RM062X) =  -1199.67518068     A.U. after   15 cycles
 SCF Done:  E(RM062X) =  -1199.67569995     A.U. after   15 cycles
 SCF Done:  E(RM062X) =  -1199.67634306     A.U. after   15 cycles
 SCF Done:  E(RM062X) =  -1199.67711238     A.U. after   15 cycles
 SCF Done:  E(RM062X) =  -1199.67800946     A.U. after   15 cycles
 SCF Done:  E(RM062X) =  -1199.67903459     A.U. after   15 cycles
 SCF Done:  E(RM062X) =  -1199.68018617     A.U. after   14 cycles
 SCF Done:  E(RM062X) =  -1199.71676700     A.U. after   10 cycles
 SCF Done:  E(RM062X) =  -1199.71685593     A.U. after   10 cycles
 SCF Done:  E(RM062X) =  -1199.71694234     A.U. after   10 cycles
 SCF Done:  E(RM062X) =  -1199.71702709     A.U. after    9 cycles
 SCF Done:  E(RM062X) =  -1199.71710947     A.U. after   10 cycles
 SCF Done:  E(RM062X) =  -1199.71719013     A.U. after    9 cycles
 SCF Done:  E(RM062X) =  -1199.71726850     A.U. after   10 cycles
 SCF Done:  E(RM062X) =  -1199.71734501     A.U. after    9 cycles
 SCF Done:  E(RM062X) =  -1199.71741922     A.U. after   10 cycles
 SCF Done:  E(RM062X) =  -1199.71749136     A.U. after    9 cycles

                          Input orientation:
 ---------------------------------------------------------------------
 Center     Atomic      Atomic             Coordinates (Angstroms)
 Number     Number       Type             X           Y           Z
 ---------------------------------------------------------------------
      1          6           0        0.229681   -1.359558   -0.709085
      2          6           0        0.678186   -0.363331    0.311355
      3          9           0       -2.135612    0.599412    0.296864
      4          9           0        1.082766   -0.931620    1.465054
      5         16           0        0.230783    1.179502    0.421438
      6          8           0       -1.312826    1.561062    0.888986
      7          8           0        0.943245    2.005236    1.320954
      8          8           0        0.070498    1.706088   -1.031935
      9          9           0       -0.368650   -0.782141   -1.755104
     10          9           0        1.279340   -2.042794   -1.177563
     11          9           0       -0.611928   -2.254856   -0.195375
     12          1           0        0.805647    1.411606   -1.589343
 ---------------------------------------------------------------------

 Normal termination of Gaussian 16 at Sat May 24 07:24:38 2025.
