 Gaussian 16, Revision C.01,
 Gaussian 16:  ES64L-G16RevC.01  3-Jul-2019

 ----------------------------------------------------------------------
 #P M062X/Def2TZVPP Symm(None) scf(xqc) pop(None) geom(AllCheck,NoKeepC
 onstants) guess(Read) irc(RCFC,reverse,MaxPoints=100,StepSize=2)
 ----------------------------------------------------------------------

 Structure from the checkpoint file:  "2003846667223680600001_intra_H_migration_suprafacial_6_12_IRC_R.chk"
 ------------------------------
 Gaussian input prepared by ASE
 ------------------------------
 Charge =  0 Multiplicity = 1

 SCF Done:  E(RM062X) =  -1199.85991291     A.U. after   10 cycles
 SCF Done:  E(RM062X) =  -1199.85997855     A.U. after   11 cycles
 SCF Done:  E(RM062X) =  -1199.86008547     A.U. after   11 cycles
 SCF Done:  E(RM062X) =  -1199.86023167     A.U. after   10 cycles
 SCF Done:  E(RM062X) =  -1199.86041525     A.U. after   10 cycles
 SCF Done:  E(RM062X) =  -1199.86063447     A.U. after   10 cycles
 SCF Done:  E(RM062X) =  -1199.86088772     A.U. after   10 cycles
 SCF Done:  E(RM062X) =  -1199.86117348     A.U. after   10 cycles
 SCF Done:  E(RM062X) =  -1199.86149031     A.U. after   10 cycles
 SCF Done:  E(RM062X) =  -1199.86183683     A.U. after   10 cycles
 SCF Done:  E(RM062X) =  -1199.90829561     A.U. after    9 cycles
 SCF Done:  E(RM062X) =  -1199.90865305     A.U. after    9 cycles
 SCF Done:  E(RM062X) =  -1199.90900455     A.U. after    9 cycles
 SCF Done:  E(RM062X) =  -1199.90935028     A.U. after    9 cycles
 SCF Done:  E(RM062X) =  -1199.90969044     A.U. after    9 cycles
 SCF Done:  E(RM062X) =  -1199.91002518     A.U. after    9 cycles
 SCF Done:  E(RM062X) =  -1199.91035468     A.U. after    9 cycles
 SCF Done:  E(RM062X) =  -1199.91067912     A.U. after    9 cycles
 SCF Done:  E(RM062X) =  -1199.91099868     A.U. after    9 cycles
 SCF Done:  E(RM062X) =  -1199.91131351     A.U. after    9 cycles

                          Input orientation:
 ---------------------------------------------------------------------
 Center     Atomic      Atomic             Coordinates (Angstroms)
 Number     Number       Type             X           Y           Z
 ---------------------------------------------------------------------
      1          6           0        0.919287   -1.181365   -0.656532
      2          6           0        0.267750    0.204534   -0.911124
      3          9           0        0.945903    0.767436   -1.930423
      4          9           0       -0.984235   -0.003529   -1.332176
      5         16           0       -0.954562    0.993419    1.644167
      6          8           0        0.283637    0.996388    0.208138
      7          8           0       -2.058833    0.157996    1.373689
      8          8           0       -1.096780    2.343047    2.028933
      9          9           0        2.218035   -1.059670   -0.421381
     10          9           0        0.347944   -1.721336    0.423965
     11          9           0        0.746465   -2.001943   -1.680874
     12          1           0        0.008913    0.371700    2.341397
 ---------------------------------------------------------------------

 Normal termination of Gaussian 16 at Sat May 24 06:25:31 2025.
