 Gaussian 16, Revision C.01,
 Gaussian 16:  ES64L-G16RevC.01  3-Jul-2019

 -----------------------------------------------------------------
 #P M062X/Def2TZVPP Symm(None) scf(xqc) pop(None) freq opt(CalcFC)
 -----------------------------------------------------------------

 ------------------------------
 Gaussian input prepared by ASE
 ------------------------------
 Symbolic Z-matrix:
 Charge =  0 Multiplicity = 1

 SCF Done:  E(RM062X) =  -1199.93649649     A.U. after   13 cycles
 SCF Done:  E(RM062X) =  -1199.93697442     A.U. after   12 cycles
 SCF Done:  E(RM062X) =  -1199.93843181     A.U. after   12 cycles
 SCF Done:  E(RM062X) =  -1199.94032708     A.U. after   12 cycles
 SCF Done:  E(RM062X) =  -1199.94033374     A.U. after   12 cycles
 SCF Done:  E(RM062X) =  -1199.94061781     A.U. after   11 cycles
 SCF Done:  E(RM062X) =  -1199.94064984     A.U. after   10 cycles
 SCF Done:  E(RM062X) =  -1199.94067121     A.U. after   10 cycles
 SCF Done:  E(RM062X) =  -1199.94067538     A.U. after   10 cycles
 SCF Done:  E(RM062X) =  -1199.94067587     A.U. after    8 cycles
 Optimization completed.
    -- Stationary point found.
 Normal termination of Gaussian 16 at Sat May 24 04:20:34 2025.

 ---------------------------------------------------------------------
 #P Geom=AllCheck Guess=TCheck SCRF=Check GenChk RM062X/def2TZVPP Freq
 ---------------------------------------------------------------------

 Structure from the checkpoint file:  "2003846667223680600001_r12_insertion_R_6_5_2_IRC_R_prod.chk"
 ------------------------------
 Gaussian input prepared by ASE
 ------------------------------
 Charge =  0 Multiplicity = 1

                          Input orientation:
 ---------------------------------------------------------------------
 Center     Atomic      Atomic             Coordinates (Angstroms)
 Number     Number       Type             X           Y           Z
 ---------------------------------------------------------------------
      1          6           0       -1.147389   -0.925282    0.037805
      2          6           0       -0.446157    0.449485   -0.052799
      3          9           0       -0.751385    1.005652   -1.231813
      4          9           0       -0.891649    1.227953    0.929218
      5         16           0        1.390992    0.353634    0.062730
      6          8           0        1.728838    0.138618    1.415658
      7          8           0        1.829151   -0.476167   -1.001830
      8          8           0        1.724196    1.852679   -0.272045
      9          9           0       -0.859636   -1.662823   -1.019718
     10          9           0       -0.764750   -1.559237    1.134304
     11          9           0       -2.457682   -0.731034    0.083751
     12          1           0        1.816951    1.970835   -1.228585
 ---------------------------------------------------------------------

 SCF Done:  E(RM062X) =  -1199.94067587     A.U. after    1 cycles

 Isotropic polarizability for W=    0.000000       53.48 Bohr**3.
 End of Minotr F.D. properties file   721 does not exist.

                      1                      2                      3
                      A                      A                      A
 Frequencies --     22.7772                69.0025               128.1310
 Red. masses --     14.6491                13.8455                14.5743
 Frc consts  --      0.0045                 0.0388                 0.1410
 IR Inten    --      1.2374                 0.9593                 1.3972

                      4                      5                      6
                      A                      A                      A
 Frequencies --    192.7028               221.5431               237.6268
 Red. masses --      8.9495                16.6412                 7.6913
 Frc consts  --      0.1958                 0.4812                 0.2559
 IR Inten    --      8.3387                 1.7435                12.0104

                      7                      8                      9
                      A                      A                      A
 Frequencies --    283.5890               316.8558               323.4134
 Red. masses --     13.3165                 4.7410                18.0168
 Frc consts  --      0.6310                 0.2804                 1.1103
 IR Inten    --      0.2783                17.8656                 0.0494

                     10                     11                     12
                      A                      A                      A
 Frequencies --    361.9731               376.1553               445.8130
 Red. masses --      1.8874                16.8395                 4.9316
 Frc consts  --      0.1457                 1.4038                 0.5775
 IR Inten    --     52.5876                 0.5969                22.0136

                     13                     14                     15
                      A                      A                      A
 Frequencies --    499.7472               507.2686               543.7727
 Red. masses --      7.4148                14.7175                17.7605
 Frc consts  --      1.0911                 2.2313                 3.0941
 IR Inten    --      7.7706                32.4869                25.2269

                     16                     17                     18
                      A                      A                      A
 Frequencies --    608.9252               631.0474               664.1404
 Red. masses --     17.1453                19.4470                17.6399
 Frc consts  --      3.7456                 4.5628                 4.5842
 IR Inten    --      3.6924               110.6333                47.4679

                     19                     20                     21
                      A                      A                      A
 Frequencies --    781.8108               898.1147              1041.1067
 Red. masses --     17.3657                16.5670                14.0119
 Frc consts  --      6.2538                 7.8733                 8.9482
 IR Inten    --     19.4370               228.7502                28.4227

                     22                     23                     24
                      A                      A                      A
 Frequencies --   1139.1931              1200.9870              1256.6279
 Red. masses --      1.1816                13.6037                15.8963
 Frc consts  --      0.9035                11.5607                14.7897
 IR Inten    --     93.3150               246.8603                15.9596

                     25                     26                     27
                      A                      A                      A
 Frequencies --   1263.8391              1302.1461              1304.9638
 Red. masses --     13.3370                13.8714                13.2015
 Frc consts  --     12.5514                13.8577                13.2456
 IR Inten    --     90.2445               321.2577               235.6552

                     28                     29                     30
                      A                      A                      A
 Frequencies --   1389.3091              1504.9940              3807.0635
 Red. masses --     12.6871                15.5396                 1.0657
 Frc consts  --     14.4281                20.7376                 9.1001
 IR Inten    --     91.7995               295.7406               187.9378

 - Thermochemistry -
 -------------------
 Temperature   298.150 Kelvin.  Pressure   1.00000 Atm.
 Atom     1 has atomic number  6 and mass  12.00000

 Molecular mass:   199.95666 amu.
 Principal axes and moments of inertia in atomic units:
                           1         2         3
     Eigenvalues --  1118.935412147.610542266.23185
           X            0.88332  -0.46574  -0.05322
           Y            0.46875   0.87660   0.10882
           Z           -0.00403  -0.12107   0.99264
 This molecule is an asymmetric top.
 Rotational symmetry number  1.
 Warning -- assumption of classical behavior for rotation
           may cause significant error
 Rotational temperatures (Kelvin)      0.07741     0.04033     0.03822
 Rotational constants (GHZ):           1.61291     0.84035     0.79636
 Zero-point vibrational energy     139512.3 (Joules/Mol)
                                   33.34425 (Kcal/Mol)
 Warning -- explicit consideration of  16 degrees of freedom as
           vibrations may cause significant error
 Vibrational temperatures:     32.77    99.28   184.35   277.26   318.75
          (Kelvin)            341.89   408.02   455.88   465.32   520.80
                              541.20   641.43   719.02   729.85   782.37
                              876.11   907.94   955.55  1124.85  1292.19
                             1497.92  1639.04  1727.95  1808.01  1818.38
                             1873.50  1877.55  1998.91  2165.35  5477.52

 Zero-point correction=                           0.053137 (Hartree/Particle)
 Thermal correction to Energy=                    0.063458
 Thermal correction to Enthalpy=                  0.064403
 Thermal correction to Gibbs Free Energy=         0.015846
 Sum of electronic and zero-point Energies=          -1199.887538
 Sum of electronic and thermal Energies=             -1199.877217
 Sum of electronic and thermal Enthalpies=           -1199.876273
 Sum of electronic and thermal Free Energies=        -1199.924830

                     E (Thermal)             CV                S
                      KCal/Mol        Cal/Mol-Kelvin    Cal/Mol-Kelvin
 Total                   39.821             35.999            102.196
 Electronic               0.000              0.000              0.000
 Translational            0.889              2.981             41.783
 Rotational               0.889              2.981             30.078
 Vibrational             38.043             30.037             30.335
 Vibration     1          0.593              1.985              6.376
 Vibration     2          0.598              1.969              4.182
 Vibration     3          0.611              1.925              2.974
 Vibration     4          0.635              1.850              2.202
 Vibration     5          0.648              1.808              1.946
 Vibration     6          0.656              1.783              1.821
 Vibration     7          0.682              1.704              1.512
 Vibration     8          0.704              1.641              1.326
 Vibration     9          0.708              1.629              1.293
 Vibration    10          0.736              1.551              1.114
 Vibration    11          0.747              1.521              1.055
 Vibration    12          0.805              1.370              0.809
 Vibration    13          0.855              1.251              0.659
 Vibration    14          0.862              1.234              0.640
 Vibration    15          0.899              1.153              0.557
 Vibration    16          0.968              1.013              0.435

 Optimization completed.
    -- Stationary point found.
 Normal termination of Gaussian 16 at Sat May 24 04:25:38 2025.
