 Gaussian 16, Revision C.01,
 Gaussian 16:  ES64L-G16RevC.01  3-Jul-2019

 -----------------------------------------------------------------
 #P M062X/Def2TZVPP Symm(None) scf(xqc) pop(None) freq opt(CalcFC)
 -----------------------------------------------------------------

 ------------------------------
 Gaussian input prepared by ASE
 ------------------------------
 Symbolic Z-matrix:
 Charge =  0 Multiplicity = 1

 SCF Done:  E(RM062X) =  -1199.93649974     A.U. after   13 cycles
 SCF Done:  E(RM062X) =  -1199.93694507     A.U. after   12 cycles
 SCF Done:  E(RM062X) =  -1199.93834165     A.U. after   12 cycles
 SCF Done:  E(RM062X) =  -1199.94004673     A.U. after   13 cycles
 SCF Done:  E(RM062X) =  -1199.94016445     A.U. after   12 cycles
 SCF Done:  E(RM062X) =  -1199.93955533     A.U. after   12 cycles
 SCF Done:  E(RM062X) =  -1199.94036181     A.U. after   12 cycles
 SCF Done:  E(RM062X) =  -1199.94032628     A.U. after   11 cycles
 SCF Done:  E(RM062X) =  -1199.94054039     A.U. after   12 cycles
 SCF Done:  E(RM062X) =  -1199.94059177     A.U. after   12 cycles
 SCF Done:  E(RM062X) =  -1199.94059319     A.U. after   12 cycles
 SCF Done:  E(RM062X) =  -1199.94067562     A.U. after   12 cycles
 SCF Done:  E(RM062X) =  -1199.94065786     A.U. after   11 cycles
 SCF Done:  E(RM062X) =  -1199.94068087     A.U. after   11 cycles
 SCF Done:  E(RM062X) =  -1199.94068099     A.U. after    6 cycles
 SCF Done:  E(RM062X) =  -1199.94068100     A.U. after    6 cycles
 SCF Done:  E(RM062X) =  -1199.94068101     A.U. after    6 cycles
 Optimization completed.
    -- Stationary point found.
 Normal termination of Gaussian 16 at Sat May 24 04:51:41 2025.

 ---------------------------------------------------------------------
 #P Geom=AllCheck Guess=TCheck SCRF=Check GenChk RM062X/def2TZVPP Freq
 ---------------------------------------------------------------------

 Structure from the checkpoint file:  "2003846667223680600001_r12_insertion_R_8_5_2_IRC_F_prod.chk"
 ------------------------------
 Gaussian input prepared by ASE
 ------------------------------
 Charge =  0 Multiplicity = 1

                          Input orientation:
 ---------------------------------------------------------------------
 Center     Atomic      Atomic             Coordinates (Angstroms)
 Number     Number       Type             X           Y           Z
 ---------------------------------------------------------------------
      1          6           0       -1.088371   -1.000259   -0.059648
      2          6           0       -0.416952    0.356480   -0.372550
      3          9           0       -0.234112    0.445355   -1.695846
      4          9           0       -1.220329    1.338169    0.027441
      5         16           0        1.225023    0.578259    0.434998
      6          8           0        1.001334    0.853118    1.800755
      7          8           0        2.062303   -0.467711   -0.032712
      8          8           0        1.641717    1.927984   -0.254300
      9          9           0       -2.303890   -1.003274   -0.588186
     10          9           0       -0.391072   -1.993782   -0.581159
     11          9           0       -1.184605   -1.169011    1.248950
     12          1           0        2.107528    1.751174   -1.084523
 ---------------------------------------------------------------------

 SCF Done:  E(RM062X) =  -1199.94068100     A.U. after    1 cycles

 Isotropic polarizability for W=    0.000000       53.46 Bohr**3.
 End of Minotr F.D. properties file   721 does not exist.

                      1                      2                      3
                      A                      A                      A
 Frequencies --     21.0572                69.4032               128.4937
 Red. masses --     14.4305                14.0482                14.5171
 Frc consts  --      0.0038                 0.0399                 0.1412
 IR Inten    --      1.3465                 0.9100                 1.3863

                      4                      5                      6
                      A                      A                      A
 Frequencies --    194.2143               220.3289               238.3192
 Red. masses --      9.0569                16.7909                 7.8240
 Frc consts  --      0.2013                 0.4803                 0.2618
 IR Inten    --      8.4469                 1.6121                11.9153

                      7                      8                      9
                      A                      A                      A
 Frequencies --    283.8648               316.6956               323.5136
 Red. masses --     13.5254                 4.7612                17.7873
 Frc consts  --      0.6421                 0.2814                 1.0968
 IR Inten    --      0.3305                17.7181                 0.0452

                     10                     11                     12
                      A                      A                      A
 Frequencies --    362.2542               376.1083               445.1973
 Red. masses --      1.8642                16.4751                 4.9141
 Frc consts  --      0.1441                 1.3731                 0.5738
 IR Inten    --     53.4205                 0.7805                21.8907

                     13                     14                     15
                      A                      A                      A
 Frequencies --    499.4185               506.5357               543.9388
 Red. masses --      7.5441                14.8103                17.7640
 Frc consts  --      1.1086                 2.2389                 3.0966
 IR Inten    --      7.8115                32.4412                25.3019

                     16                     17                     18
                      A                      A                      A
 Frequencies --    608.9769               631.0213               664.1366
 Red. masses --     17.1450                19.4291                17.6243
 Frc consts  --      3.7462                 4.5582                 4.5801
 IR Inten    --      3.6389               110.2894                47.3314

                     19                     20                     21
                      A                      A                      A
 Frequencies --    781.7433               897.7853              1041.3051
 Red. masses --     17.3636                16.5846                14.0251
 Frc consts  --      6.2520                 7.8759                 8.9601
 IR Inten    --     19.4196               228.3497                28.8849

                     22                     23                     24
                      A                      A                      A
 Frequencies --   1137.3265              1201.1424              1256.5217
 Red. masses --      1.1826                13.6422                15.8905
 Frc consts  --      0.9012                11.5964                14.7818
 IR Inten    --     92.2073               247.0836                15.0535

                     25                     26                     27
                      A                      A                      A
 Frequencies --   1264.0950              1301.4735              1305.4825
 Red. masses --     13.3275                13.8852                13.2006
 Frc consts  --     12.5476                13.8571                13.2552
 IR Inten    --     92.0379               321.9666               235.2373

                     28                     29                     30
                      A                      A                      A
 Frequencies --   1389.8262              1503.2510              3810.0409
 Red. masses --     12.6860                15.5115                 1.0657
 Frc consts  --     14.4376                20.6523                 9.1144
 IR Inten    --     90.6441               296.3519               188.4115

 - Thermochemistry -
 -------------------
 Temperature   298.150 Kelvin.  Pressure   1.00000 Atm.
 Atom     1 has atomic number  6 and mass  12.00000

 Molecular mass:   199.95666 amu.
 Principal axes and moments of inertia in atomic units:
                           1         2         3
     Eigenvalues --  1118.598372149.001672267.34425
           X            0.80924  -0.38546  -0.44334
           Y            0.56723   0.70908   0.41888
           Z            0.15290  -0.59045   0.79246
 This molecule is an asymmetric top.
 Rotational symmetry number  1.
 Warning -- assumption of classical behavior for rotation
           may cause significant error
 Rotational temperatures (Kelvin)      0.07743     0.04030     0.03820
 Rotational constants (GHZ):           1.61340     0.83980     0.79597
 Zero-point vibrational energy     139505.3 (Joules/Mol)
                                   33.34258 (Kcal/Mol)
 Warning -- explicit consideration of  16 degrees of freedom as
           vibrations may cause significant error
 Vibrational temperatures:     30.30    99.86   184.87   279.43   317.00
          (Kelvin)            342.89   408.42   455.65   465.46   521.20
                              541.14   640.54   718.55   728.79   782.61
                              876.18   907.90   955.54  1124.75  1291.71
                             1498.21  1636.36  1728.18  1807.85  1818.75
                             1872.53  1878.30  1999.65  2162.84  5481.80

 Zero-point correction=                           0.053135 (Hartree/Particle)
 Thermal correction to Energy=                    0.063457
 Thermal correction to Enthalpy=                  0.064402
 Thermal correction to Gibbs Free Energy=         0.015782
 Sum of electronic and zero-point Energies=          -1199.887546
 Sum of electronic and thermal Energies=             -1199.877224
 Sum of electronic and thermal Enthalpies=           -1199.876279
 Sum of electronic and thermal Free Energies=        -1199.924899

                     E (Thermal)             CV                S
                      KCal/Mol        Cal/Mol-Kelvin    Cal/Mol-Kelvin
 Total                   39.820             36.001            102.329
 Electronic               0.000              0.000              0.000
 Translational            0.889              2.981             41.783
 Rotational               0.889              2.981             30.078
 Vibrational             38.043             30.040             30.467
 Vibration     1          0.593              1.985              6.532
 Vibration     2          0.598              1.969              4.170
 Vibration     3          0.611              1.925              2.968
 Vibration     4          0.635              1.848              2.187
 Vibration     5          0.647              1.810              1.956
 Vibration     6          0.656              1.782              1.815
 Vibration     7          0.682              1.704              1.510
 Vibration     8          0.704              1.642              1.327
 Vibration     9          0.708              1.628              1.292
 Vibration    10          0.736              1.550              1.112
 Vibration    11          0.747              1.521              1.055
 Vibration    12          0.805              1.371              0.810
 Vibration    13          0.855              1.251              0.660
 Vibration    14          0.862              1.236              0.642
 Vibration    15          0.899              1.153              0.557
 Vibration    16          0.968              1.013              0.434

 Optimization completed.
    -- Stationary point found.
 Normal termination of Gaussian 16 at Sat May 24 04:56:38 2025.
