 Gaussian 16, Revision C.01,
 Gaussian 16:  ES64L-G16RevC.01  3-Jul-2019

 ----------------------------------------------------------------------
 #P M062X/Def2TZVPP Symm(None) scf(xqc) pop(None) geom(AllCheck,NoKeepC
 onstants) guess(Read) irc(RCFC,forward,MaxPoints=100,StepSize=2)
 ----------------------------------------------------------------------

 Structure from the checkpoint file:  "2003846667223680600001_r12_insertion_R_6_5_8_IRC_F.chk"
 ------------------------------
 Gaussian input prepared by ASE
 ------------------------------
 Charge =  0 Multiplicity = 1

 SCF Done:  E(RM062X) =  -1199.81770415     A.U. after   11 cycles
 SCF Done:  E(RM062X) =  -1199.81784987     A.U. after   12 cycles
 SCF Done:  E(RM062X) =  -1199.81883491     A.U. after   12 cycles
 SCF Done:  E(RM062X) =  -1199.81977469     A.U. after   12 cycles
 SCF Done:  E(RM062X) =  -1199.82068407     A.U. after   11 cycles
 SCF Done:  E(RM062X) =  -1199.82157223     A.U. after   11 cycles
 SCF Done:  E(RM062X) =  -1199.82244495     A.U. after   11 cycles
 SCF Done:  E(RM062X) =  -1199.82330590     A.U. after   11 cycles
 SCF Done:  E(RM062X) =  -1199.82415748     A.U. after   11 cycles
 SCF Done:  E(RM062X) =  -1199.82500132     A.U. after   11 cycles
 SCF Done:  E(RM062X) =  -1199.88420243     A.U. after    9 cycles
 SCF Done:  E(RM062X) =  -1199.88484807     A.U. after    9 cycles
 SCF Done:  E(RM062X) =  -1199.88549152     A.U. after    9 cycles
 SCF Done:  E(RM062X) =  -1199.88613276     A.U. after    9 cycles
 SCF Done:  E(RM062X) =  -1199.88677174     A.U. after    9 cycles
 SCF Done:  E(RM062X) =  -1199.88740843     A.U. after    9 cycles
 SCF Done:  E(RM062X) =  -1199.88804280     A.U. after    9 cycles
 SCF Done:  E(RM062X) =  -1199.88867481     A.U. after    9 cycles
 SCF Done:  E(RM062X) =  -1199.88930442     A.U. after    9 cycles
 SCF Done:  E(RM062X) =  -1199.88993161     A.U. after    9 cycles

                          Input orientation:
 ---------------------------------------------------------------------
 Center     Atomic      Atomic             Coordinates (Angstroms)
 Number     Number       Type             X           Y           Z
 ---------------------------------------------------------------------
      1          6           0       -0.912675   -1.064072    0.076152
      2          6           0       -0.696415    0.516339   -0.080444
      3          9           0       -1.281056    0.887927   -1.209461
      4          9           0       -1.280593    1.129724    0.932169
      5         16           0        1.247066    0.655729   -0.017198
      6          8           0        1.348294    0.482535    1.388591
      7          8           0        1.456985   -0.247869   -1.109453
      8          8           0        2.367748    1.759007   -0.270208
      9          9           0       -0.872801   -1.649099   -1.104899
     10          9           0       -0.027988   -1.636542    0.869314
     11          9           0       -2.116673   -1.257300    0.600045
     12          1           0        2.668881    1.682676   -1.188307
 ---------------------------------------------------------------------

 Normal termination of Gaussian 16 at Sat May 24 05:44:46 2025.
