 Gaussian 16, Revision C.01,
 Gaussian 16:  ES64L-G16RevC.01  3-Jul-2019

 -----------------------------------------------------------------
 #P M062X/Def2TZVPP Symm(None) scf(xqc) pop(None) freq opt(CalcFC)
 -----------------------------------------------------------------

 ------------------------------
 Gaussian input prepared by ASE
 ------------------------------
 Symbolic Z-matrix:
 Charge =  0 Multiplicity = 1

 SCF Done:  E(RM062X) =  -1199.83931435     A.U. after   18 cycles
 SCF Done:  E(RM062X) =  -1199.85066520     A.U. after   16 cycles
 SCF Done:  E(RM062X) =  -1199.86273652     A.U. after   13 cycles
 SCF Done:  E(RM062X) =  -1199.85699857     A.U. after   13 cycles
 SCF Done:  E(RM062X) =  -1199.87174729     A.U. after   13 cycles
 SCF Done:  E(RM062X) =  -1199.87785886     A.U. after   12 cycles
 SCF Done:  E(RM062X) =  -1199.87957022     A.U. after   12 cycles
 SCF Done:  E(RM062X) =  -1199.87869333     A.U. after   12 cycles
 SCF Done:  E(RM062X) =  -1199.88089661     A.U. after   11 cycles
 SCF Done:  E(RM062X) =  -1199.88098563     A.U. after   10 cycles
 SCF Done:  E(RM062X) =  -1199.88122528     A.U. after   10 cycles
 SCF Done:  E(RM062X) =  -1199.88123072     A.U. after    8 cycles
 SCF Done:  E(RM062X) =  -1199.88123400     A.U. after    8 cycles
 SCF Done:  E(RM062X) =  -1199.88123624     A.U. after    9 cycles
 SCF Done:  E(RM062X) =  -1199.88123800     A.U. after    8 cycles
 SCF Done:  E(RM062X) =  -1199.88123894     A.U. after    9 cycles
 SCF Done:  E(RM062X) =  -1199.88123876     A.U. after    7 cycles
 SCF Done:  E(RM062X) =  -1199.88123906     A.U. after    7 cycles
 SCF Done:  E(RM062X) =  -1199.88123914     A.U. after    7 cycles
 Optimization completed.
    -- Stationary point found.
 Normal termination of Gaussian 16 at Sat May 24 09:12:27 2025.

 ---------------------------------------------------------------------
 #P Geom=AllCheck Guess=TCheck SCRF=Check GenChk RM062X/def2TZVPP Freq
 ---------------------------------------------------------------------

 Structure from the checkpoint file:  "2003846667223680600001_r13_insertion_ROR_3_2_5_8_IRC_F_prod.chk"
 ------------------------------
 Gaussian input prepared by ASE
 ------------------------------
 Charge =  0 Multiplicity = 1

                          Input orientation:
 ---------------------------------------------------------------------
 Center     Atomic      Atomic             Coordinates (Angstroms)
 Number     Number       Type             X           Y           Z
 ---------------------------------------------------------------------
      1          6           0        0.000817   -1.056417   -0.819522
      2          6           0        0.189290   -0.171921    0.431821
      3          9           0       -2.617118   -0.796886    0.597558
      4          9           0        0.281125   -0.879283    1.534887
      5         16           0        0.888235    1.409814    0.352394
      6          8           0        1.474583    1.910502    1.538650
      7          8           0        1.149798    1.957207   -0.926195
      8          8           0       -0.655193    0.996279    0.543863
      9          9           0       -0.741170   -0.438249   -1.717075
     10          9           0        1.202767   -1.294192   -1.342388
     11          9           0       -0.547625   -2.210715   -0.500181
     12          1           0       -2.782596    0.106466    0.673591
 ---------------------------------------------------------------------

 SCF Done:  E(RM062X) =  -1199.88123914     A.U. after    1 cycles

 Isotropic polarizability for W=    0.000000       54.40 Bohr**3.
 End of Minotr F.D. properties file   721 does not exist.

                      1                      2                      3
                      A                      A                      A
 Frequencies --     38.6037                57.8005               104.3379
 Red. masses --     15.4295                 9.0932                10.1873
 Frc consts  --      0.0135                 0.0179                 0.0653
 IR Inten    --      6.4033                 1.4133                23.5030

                      4                      5                      6
                      A                      A                      A
 Frequencies --    121.4162               127.9279               149.9475
 Red. masses --     12.0746                 9.3261                 5.9459
 Frc consts  --      0.1049                 0.0899                 0.0788
 IR Inten    --      7.1775                 0.3634                11.9395

                      7                      8                      9
                      A                      A                      A
 Frequencies --    167.5003               241.5160               258.1343
 Red. masses --      1.2443                 2.9288                 4.0897
 Frc consts  --      0.0206                 0.1007                 0.1606
 IR Inten    --    120.8727               108.4063                91.6259

                     10                     11                     12
                      A                      A                      A
 Frequencies --    266.0995               306.8824               338.6731
 Red. masses --      2.4885                18.0606                18.4589
 Frc consts  --      0.1038                 1.0021                 1.2474
 IR Inten    --    128.1796                 2.2701                 0.6341

                     13                     14                     15
                      A                      A                      A
 Frequencies --    416.4356               471.6234               487.0742
 Red. masses --     18.3754                17.2298                17.4225
 Frc consts  --      1.8775                 2.2580                 2.4353
 IR Inten    --      6.9487                12.2767                11.8880

                     16                     17                     18
                      A                      A                      A
 Frequencies --    530.5541               565.6031               608.5289
 Red. masses --     17.8297                17.3807                17.3556
 Frc consts  --      2.9570                 3.2760                 3.7866
 IR Inten    --     13.9431                11.4260                 9.7854

                     19                     20                     21
                      A                      A                      A
 Frequencies --    632.5401               693.3773               788.5081
 Red. masses --     16.8858                16.6989                17.4181
 Frc consts  --      3.9806                 4.7302                 6.3806
 IR Inten    --     21.5200               119.1375                 9.4909

                     22                     23                     24
                      A                      A                      A
 Frequencies --   1026.3776              1103.8586              1240.8759
 Red. masses --     14.1583                14.0449                15.3076
 Frc consts  --      8.7877                10.0832                13.8872
 IR Inten    --    105.6741               197.6744               240.8690

                     25                     26                     27
                      A                      A                      A
 Frequencies --   1260.8531              1318.9498              1365.8439
 Red. masses --     13.4500                13.1586                13.8116
 Frc consts  --     12.5980                13.4870                15.1808
 IR Inten    --    150.4495               236.0685               191.3908

                     28                     29                     30
                      A                      A                      A
 Frequencies --   1390.1690              1478.0827              4128.3772
 Red. masses --     13.5085                20.5412                 1.0581
 Frc consts  --     15.3813                26.4407                10.6251
 IR Inten    --     80.2836               251.0051               124.3772

 - Thermochemistry -
 -------------------
 Temperature   298.150 Kelvin.  Pressure   1.00000 Atm.
 Atom     1 has atomic number  6 and mass  12.00000

 Molecular mass:   199.95666 amu.
 Principal axes and moments of inertia in atomic units:
                           1         2         3
     Eigenvalues --  1307.552302220.222792586.44141
           X            0.53171  -0.60514   0.59253
           Y            0.80784   0.15231  -0.56938
           Z            0.25430   0.78141   0.56984
 This molecule is an asymmetric top.
 Rotational symmetry number  1.
 Warning -- assumption of classical behavior for rotation
           may cause significant error
 Rotational temperatures (Kelvin)      0.06624     0.03901     0.03349
 Rotational constants (GHZ):           1.38024     0.81286     0.69777
 Zero-point vibrational energy     129713.9 (Joules/Mol)
                                   31.00237 (Kcal/Mol)
 Warning -- explicit consideration of  18 degrees of freedom as
           vibrations may cause significant error
 Vibrational temperatures:     55.54    83.16   150.12   174.69   184.06
          (Kelvin)            215.74   241.00   347.49   371.40   382.86
                              441.54   487.28   599.16   678.56   700.79
                              763.35   813.78   875.54   910.08   997.62
                             1134.49  1476.73  1588.21  1785.34  1814.09
                             1897.67  1965.14  2000.14  2126.63  5939.81

 Zero-point correction=                           0.049405 (Hartree/Particle)
 Thermal correction to Energy=                    0.061268
 Thermal correction to Enthalpy=                  0.062212
 Thermal correction to Gibbs Free Energy=         0.010247
 Sum of electronic and zero-point Energies=          -1199.831834
 Sum of electronic and thermal Energies=             -1199.819971
 Sum of electronic and thermal Enthalpies=           -1199.819027
 Sum of electronic and thermal Free Energies=        -1199.870992

                     E (Thermal)             CV                S
                      KCal/Mol        Cal/Mol-Kelvin    Cal/Mol-Kelvin
 Total                   38.446             39.250            109.368
 Electronic               0.000              0.000              0.000
 Translational            0.889              2.981             41.783
 Rotational               0.889              2.981             30.397
 Vibrational             36.669             33.289             37.188
 Vibration     1          0.594              1.981              5.329
 Vibration     2          0.596              1.974              4.531
 Vibration     3          0.605              1.946              3.372
 Vibration     4          0.609              1.931              3.078
 Vibration     5          0.611              1.925              2.977
 Vibration     6          0.618              1.903              2.673
 Vibration     7          0.624              1.882              2.463
 Vibration     8          0.658              1.777              1.792
 Vibration     9          0.667              1.749              1.674
 Vibration    10          0.672              1.735              1.621
 Vibration    11          0.697              1.661              1.379
 Vibration    12          0.719              1.598              1.218
 Vibration    13          0.780              1.435              0.904
 Vibration    14          0.829              1.313              0.733
 Vibration    15          0.843              1.279              0.691
 Vibration    16          0.886              1.182              0.586
 Vibration    17          0.921              1.106              0.513
 Vibration    18          0.967              1.014              0.435

                           ! Non-Optimized Parameters !
 Normal termination of Gaussian 16 at Sat May 24 09:17:11 2025.
