 Gaussian 16, Revision C.01,
 Gaussian 16:  ES64L-G16RevC.01  3-Jul-2019

 ----------------------------------------------------------------------
 #P M062X/Def2TZVPP Symm(None) scf(xqc) pop(None) opt(CalcAll,Cartesian
 )
 ----------------------------------------------------------------------

 ------------------------------
 Gaussian input prepared by ASE
 ------------------------------
 Symbolic Z-matrix:
 Charge =  0 Multiplicity = 1

 SCF Done:  E(RM062X) =  -1199.88290024     A.U. after   14 cycles
 SCF Done:  E(RM062X) =  -1199.88296134     A.U. after   13 cycles
 SCF Done:  E(RM062X) =  -1199.88308872     A.U. after   13 cycles
 SCF Done:  E(RM062X) =  -1199.88058767     A.U. after   17 cycles
 SCF Done:  E(RM062X) =  -1199.88226224     A.U. after   14 cycles
 SCF Done:  E(RM062X) =  -1199.88309569     A.U. after    9 cycles
 SCF Done:  E(RM062X) =  -1199.88317082     A.U. after   14 cycles
 SCF Done:  E(RM062X) =  -1199.88320892     A.U. after   14 cycles
 SCF Done:  E(RM062X) =  -1199.88336226     A.U. after   12 cycles
 SCF Done:  E(RM062X) =  -1199.88341874     A.U. after   13 cycles
 SCF Done:  E(RM062X) =  -1199.88063627     A.U. after   13 cycles
 SCF Done:  E(RM062X) =  -1199.88364771     A.U. after    8 cycles
 SCF Done:  E(RM062X) =  -1199.88361576     A.U. after   12 cycles
 SCF Done:  E(RM062X) =  -1199.88363824     A.U. after   12 cycles
 SCF Done:  E(RM062X) =  -1199.88123140     A.U. after   13 cycles
 SCF Done:  E(RM062X) =  -1199.88364880     A.U. after    8 cycles
 SCF Done:  E(RM062X) =  -1199.88364937     A.U. after   11 cycles
 SCF Done:  E(RM062X) =  -1199.88365230     A.U. after   10 cycles
 SCF Done:  E(RM062X) =  -1199.88365288     A.U. after   11 cycles
 SCF Done:  E(RM062X) =  -1199.88365294     A.U. after    8 cycles

 Isotropic polarizability for W=    0.000000       56.60 Bohr**3.
 End of Minotr F.D. properties file   721 does not exist.

 Optimization completed.
    -- Stationary point found.

                          Input orientation:
 ---------------------------------------------------------------------
 Center     Atomic      Atomic             Coordinates (Angstroms)
 Number     Number       Type             X           Y           Z
 ---------------------------------------------------------------------
      1          6           0       -1.991488    0.168268   -0.303848
      2          6           0        1.004696   -1.535792    0.744621
      3          9           0        0.587878   -0.998391    1.851378
      4          9           0        2.122082   -2.098474    1.058666
      5         16           0        1.593169    1.027442   -1.299949
      6          8           0        2.174567    0.947096    0.003706
      7          8           0        1.415556    2.319629   -1.870793
      8          8           0       -0.976528    0.959813    0.094795
      9          9           0       -2.126550   -0.902996    0.478734
     10          9           0       -3.160341    0.808012   -0.291988
     11          9           0       -1.744004   -0.228819   -1.538155
     12          1           0       -1.026124    1.112712    1.045494
 ---------------------------------------------------------------------

                      1                      2                      3
                      A                      A                      A
 Frequencies --     17.5243                28.6338                42.7270
 Red. masses --     13.6109                15.1282                16.7940
 Frc consts  --      0.0025                 0.0073                 0.0181
 IR Inten    --      2.3861                 2.4652                 0.4916

                      4                      5                      6
                      A                      A                      A
 Frequencies --     47.1074                52.9298                59.8325
 Red. masses --     17.1580                15.6717                17.1599
 Frc consts  --      0.0224                 0.0259                 0.0362
 IR Inten    --      1.5881                 2.4317                 0.4876

                      7                      8                      9
                      A                      A                      A
 Frequencies --     68.8091                72.2371                82.9138
 Red. masses --     13.5001                15.4898                11.5676
 Frc consts  --      0.0377                 0.0476                 0.0469
 IR Inten    --      2.0830                 1.1501                 4.3003

                     10                     11                     12
                      A                      A                      A
 Frequencies --     89.3118               124.2378               196.0377
 Red. masses --     10.4706                18.5837                 1.3550
 Frc consts  --      0.0492                 0.1690                 0.0307
 IR Inten    --      2.2018                23.8386               122.3819

                     13                     14                     15
                      A                      A                      A
 Frequencies --    206.4234               443.5148               457.1038
 Red. masses --      5.5264                14.9398                 8.2190
 Frc consts  --      0.1387                 1.7315                 1.0118
 IR Inten    --     18.9860                 3.4759                10.7619

                     16                     17                     18
                      A                      A                      A
 Frequencies --    549.6801               613.2681               629.8890
 Red. masses --     18.4278                 6.8245                17.3826
 Frc consts  --      3.2805                 1.5122                 4.0634
 IR Inten    --     31.1187                13.3542                 5.7453

                     19                     20                     21
                      A                      A                      A
 Frequencies --    648.5922               691.3878               935.8900
 Red. masses --     14.7890                17.7259                14.8653
 Frc consts  --      3.6655                 4.9923                 7.6714
 IR Inten    --      6.3260                 4.3484                 3.0163

                     22                     23                     24
                      A                      A                      A
 Frequencies --   1135.7864              1177.4414              1246.9214
 Red. masses --      1.9530                11.2257                12.8825
 Frc consts  --      1.4844                 9.1694                11.8012
 IR Inten    --    101.2261               402.7602               378.8712

                     25                     26                     27
                      A                      A                      A
 Frequencies --   1252.2446              1289.4491              1323.7471
 Red. masses --     16.8956                13.7119                10.2309
 Frc consts  --     15.6099                13.4325                10.5627
 IR Inten    --     71.2230               114.0510               537.1571

                     28                     29                     30
                      A                      A                      A
 Frequencies --   1426.8625              1441.1232              3858.5569
 Red. masses --      2.7696                19.9396                 1.0659
 Frc consts  --      3.3223                24.3988                 9.3502
 IR Inten    --    190.3771               319.3346               122.4582

 - Thermochemistry -
 -------------------
 Temperature   298.150 Kelvin.  Pressure   1.00000 Atm.
 Atom     1 has atomic number  6 and mass  12.00000

 Molecular mass:   199.95666 amu.
 Principal axes and moments of inertia in atomic units:
                           1         2         3
     Eigenvalues --  1992.180232731.207934198.75909
           X            0.99810   0.05824  -0.02035
           Y           -0.03069   0.75492   0.65510
           Z            0.05351  -0.65323   0.75527
 This molecule is an asymmetric top.
 Rotational symmetry number  1.
 Warning -- assumption of classical behavior for rotation
           may cause significant error
 Rotational temperatures (Kelvin)      0.04348     0.03171     0.02063
 Rotational constants (GHZ):           0.90591     0.66078     0.42983
 Zero-point vibrational energy     120883.7 (Joules/Mol)
                                   28.89191 (Kcal/Mol)
 Warning -- explicit consideration of  17 degrees of freedom as
           vibrations may cause significant error
 Vibrational temperatures:     25.21    41.20    61.47    67.78    76.15
          (Kelvin)             86.09    99.00   103.93   119.29   128.50
                              178.75   282.05   297.00   638.12   657.67
                              790.87   882.36   906.27   933.18   994.75
                             1346.54  1634.14  1694.08  1794.04  1801.70
                             1855.23  1904.58  2052.94  2073.45  5551.60

 Zero-point correction=                           0.046042 (Hartree/Particle)
 Thermal correction to Energy=                    0.060324
 Thermal correction to Enthalpy=                  0.061269
 Thermal correction to Gibbs Free Energy=        -0.001645
 Sum of electronic and zero-point Energies=          -1199.837611
 Sum of electronic and thermal Energies=             -1199.823329
 Sum of electronic and thermal Enthalpies=           -1199.822384
 Sum of electronic and thermal Free Energies=        -1199.885298

                     E (Thermal)             CV                S
                      KCal/Mol        Cal/Mol-Kelvin    Cal/Mol-Kelvin
 Total                   37.854             40.661            132.413
 Electronic               0.000              0.000              0.000
 Translational            0.889              2.981             41.783
 Rotational               0.889              2.981             31.502
 Vibrational             36.077             34.699             59.128
 Vibration     1          0.593              1.986              6.897
 Vibration     2          0.593              1.984              5.922
 Vibration     3          0.595              1.980              5.128
 Vibration     4          0.595              1.979              4.935
 Vibration     5          0.596              1.976              4.705
 Vibration     6          0.597              1.973              4.463
 Vibration     7          0.598              1.969              4.187
 Vibration     8          0.598              1.967              4.091
 Vibration     9          0.600              1.961              3.821
 Vibration    10          0.602              1.957              3.675
 Vibration    11          0.610              1.929              3.033
 Vibration    12          0.636              1.845              2.170
 Vibration    13          0.641              1.831              2.075
 Vibration    14          0.803              1.375              0.816
 Vibration    15          0.815              1.345              0.775
 Vibration    16          0.905              1.140              0.545
 Vibration    17          0.973              1.004              0.427

 Normal termination of Gaussian 16 at Sat May 24 10:44:28 2025.
