 Gaussian 16, Revision C.01,
 Gaussian 16:  ES64L-G16RevC.01  3-Jul-2019

 ----------------------------------------------------------------------
 #P M062X/Def2TZVPP Symm(None) scf(xqc) pop(None) geom(AllCheck,NoKeepC
 onstants) guess(Read) irc(RCFC,reverse,MaxPoints=100,StepSize=2)
 ----------------------------------------------------------------------

 Structure from the checkpoint file:  "2003846667223680600001_r12_insertion_R_3_2_5_IRC_R.chk"
 ------------------------------
 Gaussian input prepared by ASE
 ------------------------------
 Charge =  0 Multiplicity = 1

 SCF Done:  E(RM062X) =  -1199.79183331     A.U. after    9 cycles
 SCF Done:  E(RM062X) =  -1199.79187911     A.U. after   10 cycles
 SCF Done:  E(RM062X) =  -1199.79195401     A.U. after   10 cycles
 SCF Done:  E(RM062X) =  -1199.79205688     A.U. after   10 cycles
 SCF Done:  E(RM062X) =  -1199.79218655     A.U. after   10 cycles
 SCF Done:  E(RM062X) =  -1199.79234183     A.U. after   10 cycles
 SCF Done:  E(RM062X) =  -1199.79252151     A.U. after   10 cycles
 SCF Done:  E(RM062X) =  -1199.79272439     A.U. after   10 cycles
 SCF Done:  E(RM062X) =  -1199.79294926     A.U. after   10 cycles
 SCF Done:  E(RM062X) =  -1199.79319489     A.U. after   10 cycles
 SCF Done:  E(RM062X) =  -1199.82269141     A.U. after    9 cycles
 SCF Done:  E(RM062X) =  -1199.82287015     A.U. after    9 cycles
 SCF Done:  E(RM062X) =  -1199.82304407     A.U. after    9 cycles
 SCF Done:  E(RM062X) =  -1199.82321325     A.U. after    9 cycles
 SCF Done:  E(RM062X) =  -1199.82337773     A.U. after    9 cycles
 SCF Done:  E(RM062X) =  -1199.82353759     A.U. after    9 cycles
 SCF Done:  E(RM062X) =  -1199.82369289     A.U. after    9 cycles
 SCF Done:  E(RM062X) =  -1199.82384369     A.U. after    9 cycles
 SCF Done:  E(RM062X) =  -1199.82399008     A.U. after    9 cycles
 SCF Done:  E(RM062X) =  -1199.82413213     A.U. after    9 cycles

                          Input orientation:
 ---------------------------------------------------------------------
 Center     Atomic      Atomic             Coordinates (Angstroms)
 Number     Number       Type             X           Y           Z
 ---------------------------------------------------------------------
      1          6           0       -1.524828   -1.150502    0.159047
      2          6           0       -0.584851   -0.413932    1.151045
      3          9           0        0.121488    1.000952   -0.726435
      4          9           0       -1.272381    0.557471    1.634565
      5         16           0        1.622707    0.803047   -0.305144
      6          8           0        1.751431    1.420180    0.955882
      7          8           0        1.947000   -0.529323   -0.592209
      8          8           0        2.264546    1.701928   -1.402326
      9          9           0       -0.870901   -1.563493   -0.913823
     10          9           0       -1.926969   -2.213842    0.861544
     11          9           0       -2.592505   -0.466211   -0.237147
     12          1           0        2.313163    2.619240   -1.097474
 ---------------------------------------------------------------------

 Normal termination of Gaussian 16 at Sat May 24 05:03:52 2025.
