 Gaussian 16, Revision C.01,
 Gaussian 16:  ES64L-G16RevC.01  3-Jul-2019

 ----------------------------------------------------------------------
 #P M062X/Def2TZVPP Symm(None) scf(xqc) pop(None) geom(AllCheck,NoKeepC
 onstants) guess(Read) irc(RCFC,forward,MaxPoints=100,StepSize=2)
 ----------------------------------------------------------------------

 Structure from the checkpoint file:  "2003846667223680600001_r12_insertion_R_3_2_1_IRC_F.chk"
 ------------------------------
 Gaussian input prepared by ASE
 ------------------------------
 Charge =  0 Multiplicity = 1

 SCF Done:  E(RM062X) =  -1199.74717229     A.U. after   10 cycles
 SCF Done:  E(RM062X) =  -1199.74731494     A.U. after   11 cycles
 SCF Done:  E(RM062X) =  -1199.74755417     A.U. after   11 cycles
 SCF Done:  E(RM062X) =  -1199.74789090     A.U. after   11 cycles
 SCF Done:  E(RM062X) =  -1199.74832578     A.U. after   11 cycles
 SCF Done:  E(RM062X) =  -1199.74885919     A.U. after   11 cycles
 SCF Done:  E(RM062X) =  -1199.74949117     A.U. after   11 cycles
 SCF Done:  E(RM062X) =  -1199.75022148     A.U. after   11 cycles
 SCF Done:  E(RM062X) =  -1199.75104948     A.U. after   11 cycles
 SCF Done:  E(RM062X) =  -1199.75197421     A.U. after   11 cycles
 SCF Done:  E(RM062X) =  -1199.89603473     A.U. after    9 cycles
 SCF Done:  E(RM062X) =  -1199.89707576     A.U. after    9 cycles
 SCF Done:  E(RM062X) =  -1199.89809351     A.U. after    9 cycles
 SCF Done:  E(RM062X) =  -1199.89908816     A.U. after    9 cycles
 SCF Done:  E(RM062X) =  -1199.90005991     A.U. after    9 cycles
 SCF Done:  E(RM062X) =  -1199.90100896     A.U. after    9 cycles
 SCF Done:  E(RM062X) =  -1199.90193553     A.U. after    9 cycles
 SCF Done:  E(RM062X) =  -1199.90283984     A.U. after    9 cycles
 SCF Done:  E(RM062X) =  -1199.90372212     A.U. after    9 cycles
 SCF Done:  E(RM062X) =  -1199.90458260     A.U. after    9 cycles

                          Input orientation:
 ---------------------------------------------------------------------
 Center     Atomic      Atomic             Coordinates (Angstroms)
 Number     Number       Type             X           Y           Z
 ---------------------------------------------------------------------
      1          6           0       -1.323211   -1.044726   -0.155362
      2          6           0       -0.407481    0.338710    0.013774
      3          9           0       -0.470564    0.733966   -1.261545
      4          9           0       -0.919302    1.304170    0.788190
      5         16           0        1.489232    0.503126    0.365307
      6          8           0        1.848965    0.884440    1.679336
      7          8           0        2.048936   -0.612605   -0.308291
      8          8           0        1.690035    1.808149   -0.495377
      9          9           0       -1.633129   -1.291490   -1.429605
     10          9           0       -0.698054   -2.126226    0.265739
     11          9           0       -2.485359   -0.857052    0.451028
     12          1           0        1.674631    1.596981   -1.439781
 ---------------------------------------------------------------------

 Normal termination of Gaussian 16 at Sat May 24 05:00:24 2025.
