 Gaussian 16, Revision C.01,
 Gaussian 16:  ES64L-G16RevC.01  3-Jul-2019

 ----------------------------------------------------------------------
 #P M062X/Def2TZVPP Symm(None) scf(xqc) pop(None) opt(NoFreeze,TS,CalcA
 ll,NoEigentest,MaxCycle=999)
 ----------------------------------------------------------------------

 ------------------------------
 Gaussian input prepared by ASE
 ------------------------------
 Symbolic Z-matrix:
 Charge =  0 Multiplicity = 1

 SCF Done:  E(RM062X) =  -1199.69527851     A.U. after   17 cycles
 SCF Done:  E(RM062X) =  -1199.75051437     A.U. after   14 cycles
 SCF Done:  E(RM062X) =  -1199.76581017     A.U. after   14 cycles
 SCF Done:  E(RM062X) =  -1199.76662616     A.U. after   13 cycles
 SCF Done:  E(RM062X) =  -1199.76664264     A.U. after   11 cycles
 SCF Done:  E(RM062X) =  -1199.76664275     A.U. after    8 cycles

 Isotropic polarizability for W=    0.000000       61.92 Bohr**3.
 End of Minotr F.D. properties file   721 does not exist.

 Optimization completed.
    -- Stationary point found.

                          Input orientation:
 ---------------------------------------------------------------------
 Center     Atomic      Atomic             Coordinates (Angstroms)
 Number     Number       Type             X           Y           Z
 ---------------------------------------------------------------------
      1          6           0       -0.080184   -1.575582    0.325241
      2          6           0       -0.031212    0.797783   -0.174753
      3          9           0       -0.492587    0.871565   -1.343166
      4          9           0       -0.748351    1.374317    0.679550
      5         16           0        1.416391   -0.191882    0.244628
      6          8           0        1.624653   -0.288788    1.653176
      7          8           0        2.015134   -0.888268   -0.856521
      8          8           0        2.150692    1.319774   -0.011846
      9          9           0       -0.675138   -1.794010   -0.856612
     10          9           0        0.486745   -2.699202    0.717442
     11          9           0       -1.051588   -1.268101    1.201515
     12          1           0        2.833388    1.221982   -0.684461
 ---------------------------------------------------------------------

 ******    1 imaginary frequencies (negative Signs) ******

                      1                      2                      3
                      A                      A                      A
 Frequencies --   -384.6778                43.6230               117.7214
 Red. masses --      8.7952                18.6916                12.4938
 Frc consts  --      0.7668                 0.0210                 0.1020
 IR Inten    --     50.5122                 0.3166                 0.9753

                      4                      5                      6
                      A                      A                      A
 Frequencies --    122.4123               156.6886               173.7943
 Red. masses --     16.6426                 7.1008                10.3200
 Frc consts  --      0.1469                 0.1027                 0.1837
 IR Inten    --      0.6411                 7.5479                 1.8038

                      7                      8                      9
                      A                      A                      A
 Frequencies --    200.6804               209.1865               272.2260
 Red. masses --     13.0021                 2.3204                10.8092
 Frc consts  --      0.3085                 0.0598                 0.4720
 IR Inten    --      2.1027                42.4706                 1.5961

                     10                     11                     12
                      A                      A                      A
 Frequencies --    282.9049               324.7857               408.2412
 Red. masses --     16.1066                 3.8222                16.4941
 Frc consts  --      0.7595                 0.2376                 1.6196
 IR Inten    --      4.2194                22.4453                 1.3436

                     13                     14                     15
                      A                      A                      A
 Frequencies --    458.6752               503.9235               552.3986
 Red. masses --      7.6605                 7.2882                17.7833
 Frc consts  --      0.9495                 1.0904                 3.1972
 IR Inten    --     13.9110                10.0738                 0.6855

                     16                     17                     18
                      A                      A                      A
 Frequencies --    566.6547               585.1052               604.9905
 Red. masses --     16.8502                14.1655                10.9417
 Frc consts  --      3.1878                 2.8573                 2.3596
 IR Inten    --     19.5357                83.0835                74.5642

                     19                     20                     21
                      A                      A                      A
 Frequencies --    706.2415               738.5700               752.2384
 Red. masses --     13.7190                17.1611                14.0998
 Frc consts  --      4.0316                 5.5154                 4.7008
 IR Inten    --    207.6815                15.2562                55.0201

                     22                     23                     24
                      A                      A                      A
 Frequencies --   1081.8274              1095.4203              1158.3917
 Red. masses --      6.0951                 1.7595                 4.3217
 Frc consts  --      4.2029                 1.2439                 3.4167
 IR Inten    --    211.6221               154.5024               124.5006

                     25                     26                     27
                      A                      A                      A
 Frequencies --   1189.7977              1274.7301              1414.8980
 Red. masses --     13.2536                13.3840                13.6762
 Frc consts  --     11.0542                12.8136                16.1312
 IR Inten    --    165.9281               240.7530               329.0938

                     28                     29                     30
                      A                      A                      A
 Frequencies --   1443.2104              1492.8638              3862.3181
 Red. masses --     15.3306                13.6038                 1.0659
 Frc consts  --     18.8134                17.8629                 9.3685
 IR Inten    --    155.4854               383.1029               165.1412

 - Thermochemistry -
 -------------------
 Temperature   298.150 Kelvin.  Pressure   1.00000 Atm.
 Atom     1 has atomic number  6 and mass  12.00000

 Molecular mass:   199.95666 amu.
 Principal axes and moments of inertia in atomic units:
                           1         2         3
     Eigenvalues --  1390.032531760.310732142.57881
           X            0.36361   0.92371  -0.12060
           Y            0.91960  -0.33526   0.20479
           Z           -0.14874   0.18536   0.97135
 This molecule is an asymmetric top.
 Rotational symmetry number  1.
 Warning -- assumption of classical behavior for rotation
           may cause significant error
 Rotational temperatures (Kelvin)      0.06231     0.04920     0.04043
 Rotational constants (GHZ):           1.29834     1.02524     0.84232
    1 imaginary frequencies ignored.
 Zero-point vibrational energy     130360.2 (Joules/Mol)
                                   31.15683 (Kcal/Mol)
 Warning -- explicit consideration of  17 degrees of freedom as
           vibrations may cause significant error
 Vibrational temperatures:     62.76   169.37   176.12   225.44   250.05
          (Kelvin)            288.73   300.97   391.67   407.04   467.29
                              587.37   659.93   725.03   794.78   815.29
                              841.84   870.45  1016.12  1062.64  1082.30
                             1556.51  1576.07  1666.67  1711.85  1834.05
                             2035.72  2076.46  2147.90  5557.01

 Zero-point correction=                           0.049652 (Hartree/Particle)
 Thermal correction to Energy=                    0.060249
 Thermal correction to Enthalpy=                  0.061193
 Thermal correction to Gibbs Free Energy=         0.012690
 Sum of electronic and zero-point Energies=          -1199.716991
 Sum of electronic and thermal Energies=             -1199.706394
 Sum of electronic and thermal Enthalpies=           -1199.705449
 Sum of electronic and thermal Free Energies=        -1199.753952

                     E (Thermal)             CV                S
                      KCal/Mol        Cal/Mol-Kelvin    Cal/Mol-Kelvin
 Total                   37.807             36.417            102.083
 Electronic               0.000              0.000              0.000
 Translational            0.889              2.981             41.783
 Rotational               0.889              2.981             30.040
 Vibrational             36.029             30.456             30.259
 Vibration     1          0.595              1.980              5.087
 Vibration     2          0.608              1.935              3.137
 Vibration     3          0.610              1.930              3.062
 Vibration     4          0.620              1.895              2.589
 Vibration     5          0.627              1.875              2.394
 Vibration     6          0.638              1.839              2.127
 Vibration     7          0.642              1.827              2.051
 Vibration     8          0.675              1.724              1.582
 Vibration     9          0.682              1.705              1.516
 Vibration    10          0.709              1.626              1.286
 Vibration    11          0.773              1.452              0.933
 Vibration    12          0.817              1.342              0.770
 Vibration    13          0.859              1.241              0.648
 Vibration    14          0.908              1.134              0.539
 Vibration    15          0.923              1.103              0.511
 Vibration    16          0.942              1.064              0.476
 Vibration    17          0.964              1.021              0.441

 Normal termination of Gaussian 16 at Sat May 24 03:16:05 2025.
