 Gaussian 16, Revision C.01,
 Gaussian 16:  ES64L-G16RevC.01  3-Jul-2019

 -----------------------------------------------------------------
 #P M062X/Def2TZVPP Symm(None) scf(xqc) pop(None) freq opt(CalcFC)
 -----------------------------------------------------------------

 ------------------------------
 Gaussian input prepared by ASE
 ------------------------------
 Symbolic Z-matrix:
 Charge =  0 Multiplicity = 1

 SCF Done:  E(RM062X) =  -1199.93449917     A.U. after   13 cycles
 SCF Done:  E(RM062X) =  -1199.93989234     A.U. after   12 cycles
 SCF Done:  E(RM062X) =  -1199.94044456     A.U. after   12 cycles
 SCF Done:  E(RM062X) =  -1199.94061151     A.U. after   12 cycles
 SCF Done:  E(RM062X) =  -1199.94065995     A.U. after   11 cycles
 SCF Done:  E(RM062X) =  -1199.94067459     A.U. after   11 cycles
 SCF Done:  E(RM062X) =  -1199.94067514     A.U. after    7 cycles
 SCF Done:  E(RM062X) =  -1199.94067516     A.U. after    7 cycles
 SCF Done:  E(RM062X) =  -1199.94067517     A.U. after    7 cycles
 Optimization completed.
    -- Stationary point found.
 Normal termination of Gaussian 16 at Sat May 24 02:47:35 2025.

 ---------------------------------------------------------------------
 #P Geom=AllCheck Guess=TCheck SCRF=Check GenChk RM062X/def2TZVPP Freq
 ---------------------------------------------------------------------

 Structure from the checkpoint file:  "2003846667223680600001_intra_H_migration_5_12_IRC_R_prod.chk"
 ------------------------------
 Gaussian input prepared by ASE
 ------------------------------
 Charge =  0 Multiplicity = 1

                          Input orientation:
 ---------------------------------------------------------------------
 Center     Atomic      Atomic             Coordinates (Angstroms)
 Number     Number       Type             X           Y           Z
 ---------------------------------------------------------------------
      1          6           0       -1.118458   -0.945086   -0.018219
      2          6           0       -0.442388    0.445058   -0.015783
      3          9           0       -0.749925    1.069620   -1.159377
      4          9           0       -0.909230    1.150940    1.010285
      5         16           0        1.395459    0.376947    0.108176
      6          8           0        1.727743    0.071693    1.445035
      7          8           0        1.858700   -0.364724   -1.009524
      8          8           0        1.700006    1.902698   -0.115279
      9          9           0       -0.802357   -1.612120   -1.113852
     10          9           0       -0.738863   -1.636999    1.043660
     11          9           0       -2.432701   -0.777619    0.020036
     12          1           0        1.799714    2.090287   -1.059939
 ---------------------------------------------------------------------

 SCF Done:  E(RM062X) =  -1199.94067517     A.U. after    1 cycles

 Isotropic polarizability for W=    0.000000       53.49 Bohr**3.
 End of Minotr F.D. properties file   721 does not exist.

                      1                      2                      3
                      A                      A                      A
 Frequencies --     21.8334                67.6535               127.4036
 Red. masses --     14.5073                13.9753                14.3200
 Frc consts  --      0.0041                 0.0377                 0.1369
 IR Inten    --      1.2995                 0.9521                 1.4998

                      4                      5                      6
                      A                      A                      A
 Frequencies --    192.0822               221.4726               237.1715
 Red. masses --      8.9492                16.7480                 7.6864
 Frc consts  --      0.1945                 0.4840                 0.2547
 IR Inten    --      8.5055                 1.6912                11.9171

                      7                      8                      9
                      A                      A                      A
 Frequencies --    283.5114               316.7880               323.5795
 Red. masses --     13.3795                 4.7854                17.9068
 Frc consts  --      0.6336                 0.2829                 1.1047
 IR Inten    --      0.2833                17.6265                 0.0420

                     10                     11                     12
                      A                      A                      A
 Frequencies --    361.8230               376.1012               445.2967
 Red. masses --      1.8702                16.8518                 4.9916
 Frc consts  --      0.1443                 1.4044                 0.5832
 IR Inten    --     53.1102                 0.6135                21.2609

                     13                     14                     15
                      A                      A                      A
 Frequencies --    499.6637               507.0156               543.8756
 Red. masses --      7.6593                14.2445                17.7622
 Frc consts  --      1.1267                 2.1574                 3.0956
 IR Inten    --      6.4382                34.1533                25.1860

                     16                     17                     18
                      A                      A                      A
 Frequencies --    608.9236               630.5927               664.0854
 Red. masses --     17.1497                19.4499                17.6337
 Frc consts  --      3.7466                 4.5568                 4.5819
 IR Inten    --      3.6857               110.4716                47.2143

                     19                     20                     21
                      A                      A                      A
 Frequencies --    781.7155               897.2710              1041.3805
 Red. masses --     17.3611                16.5579                14.0128
 Frc consts  --      6.2507                 7.8542                 8.9535
 IR Inten    --     19.4942               227.9109                29.1472

                     22                     23                     24
                      A                      A                      A
 Frequencies --   1141.4856              1200.6219              1256.4696
 Red. masses --      1.1813                13.5914                15.8505
 Frc consts  --      0.9069                11.5432                14.7434
 IR Inten    --     94.2847               245.3559                17.4340

                     25                     26                     27
                      A                      A                      A
 Frequencies --   1263.7838              1302.1525              1305.2598
 Red. masses --     13.3851                13.8737                13.2008
 Frc consts  --     12.5956                13.8601                13.2508
 IR Inten    --     90.0385               319.7822               235.0733

                     28                     29                     30
                      A                      A                      A
 Frequencies --   1389.2703              1503.4412              3809.6521
 Red. masses --     12.6872                15.4339                 1.0657
 Frc consts  --     14.4275                20.5541                 9.1126
 IR Inten    --     91.9897               296.6501               188.1332

 - Thermochemistry -
 -------------------
 Temperature   298.150 Kelvin.  Pressure   1.00000 Atm.
 Atom     1 has atomic number  6 and mass  12.00000

 Molecular mass:   199.95666 amu.
 Principal axes and moments of inertia in atomic units:
                           1         2         3
     Eigenvalues --  1118.784212148.265302266.72945
           X            0.87417  -0.48156  -0.06262
           Y            0.48449   0.87364   0.04496
           Z            0.03305  -0.06964   0.99702
 This molecule is an asymmetric top.
 Rotational symmetry number  1.
 Warning -- assumption of classical behavior for rotation
           may cause significant error
 Rotational temperatures (Kelvin)      0.07742     0.04032     0.03821
 Rotational constants (GHZ):           1.61313     0.84009     0.79619
 Zero-point vibrational energy     139492.8 (Joules/Mol)
                                   33.33958 (Kcal/Mol)
 Warning -- explicit consideration of  16 degrees of freedom as
           vibrations may cause significant error
 Vibrational temperatures:     31.41    97.34   183.31   276.36   318.65
          (Kelvin)            341.24   407.91   455.79   465.56   520.58
                              541.13   640.68   718.90   729.48   782.52
                              876.11   907.28   955.47  1124.71  1290.97
                             1498.31  1642.34  1727.43  1807.78  1818.30
                             1873.51  1877.98  1998.85  2163.12  5481.24

 Zero-point correction=                           0.053130 (Hartree/Particle)
 Thermal correction to Energy=                    0.063460
 Thermal correction to Enthalpy=                  0.064404
 Thermal correction to Gibbs Free Energy=         0.015777
 Sum of electronic and zero-point Energies=          -1199.887545
 Sum of electronic and thermal Energies=             -1199.877215
 Sum of electronic and thermal Enthalpies=           -1199.876271
 Sum of electronic and thermal Free Energies=        -1199.924898

                     E (Thermal)             CV                S
                      KCal/Mol        Cal/Mol-Kelvin    Cal/Mol-Kelvin
 Total                   39.822             36.005            102.344
 Electronic               0.000              0.000              0.000
 Translational            0.889              2.981             41.783
 Rotational               0.889              2.981             30.078
 Vibrational             38.044             30.043             30.483
 Vibration     1          0.593              1.985              6.460
 Vibration     2          0.598              1.970              4.220
 Vibration     3          0.611              1.926              2.985
 Vibration     4          0.634              1.851              2.208
 Vibration     5          0.648              1.808              1.947
 Vibration     6          0.656              1.784              1.824
 Vibration     7          0.682              1.704              1.512
 Vibration     8          0.704              1.642              1.327
 Vibration     9          0.708              1.628              1.292
 Vibration    10          0.736              1.551              1.114
 Vibration    11          0.747              1.521              1.055
 Vibration    12          0.805              1.371              0.810
 Vibration    13          0.855              1.251              0.659
 Vibration    14          0.862              1.234              0.641
 Vibration    15          0.899              1.153              0.557
 Vibration    16          0.968              1.013              0.435

 Optimization completed.
    -- Stationary point found.
 Normal termination of Gaussian 16 at Sat May 24 02:51:55 2025.
