 Gaussian 16, Revision C.01,
 Gaussian 16:  ES64L-G16RevC.01  3-Jul-2019

 ----------------------------------------------------------------------
 #P M062X/Def2TZVPP Symm(None) scf(xqc) pop(None) geom(AllCheck,NoKeepC
 onstants) guess(Read) irc(RCFC,reverse,MaxPoints=100,StepSize=2)
 ----------------------------------------------------------------------

 Structure from the checkpoint file:  "2003846667223680600001_r12_insertion_R_5_2_3_IRC_R.chk"
 ------------------------------
 Gaussian input prepared by ASE
 ------------------------------
 Charge =  0 Multiplicity = 1

 SCF Done:  E(RM062X) =  -1199.79183523     A.U. after    9 cycles
 SCF Done:  E(RM062X) =  -1199.79188089     A.U. after   10 cycles
 SCF Done:  E(RM062X) =  -1199.79195565     A.U. after   10 cycles
 SCF Done:  E(RM062X) =  -1199.79205838     A.U. after   10 cycles
 SCF Done:  E(RM062X) =  -1199.79218792     A.U. after   10 cycles
 SCF Done:  E(RM062X) =  -1199.79234308     A.U. after   10 cycles
 SCF Done:  E(RM062X) =  -1199.79252267     A.U. after   10 cycles
 SCF Done:  E(RM062X) =  -1199.79272547     A.U. after   10 cycles
 SCF Done:  E(RM062X) =  -1199.79295024     A.U. after   10 cycles
 SCF Done:  E(RM062X) =  -1199.79319579     A.U. after   10 cycles
 SCF Done:  E(RM062X) =  -1199.82268787     A.U. after    9 cycles
 SCF Done:  E(RM062X) =  -1199.82286660     A.U. after    9 cycles
 SCF Done:  E(RM062X) =  -1199.82304052     A.U. after    9 cycles
 SCF Done:  E(RM062X) =  -1199.82320968     A.U. after    9 cycles
 SCF Done:  E(RM062X) =  -1199.82337415     A.U. after    9 cycles
 SCF Done:  E(RM062X) =  -1199.82353399     A.U. after    9 cycles
 SCF Done:  E(RM062X) =  -1199.82368927     A.U. after    9 cycles
 SCF Done:  E(RM062X) =  -1199.82384006     A.U. after    9 cycles
 SCF Done:  E(RM062X) =  -1199.82398643     A.U. after    9 cycles
 SCF Done:  E(RM062X) =  -1199.82412847     A.U. after    9 cycles

                          Input orientation:
 ---------------------------------------------------------------------
 Center     Atomic      Atomic             Coordinates (Angstroms)
 Number     Number       Type             X           Y           Z
 ---------------------------------------------------------------------
      1          6           0       -1.514458   -1.162332    0.173504
      2          6           0       -0.591574   -0.391014    1.155039
      3          9           0        0.118246    0.983708   -0.750393
      4          9           0       -1.293790    0.584612    1.608035
      5         16           0        1.617238    0.812404   -0.309859
      6          8           0        1.727125    1.462333    0.936395
      7          8           0        1.958253   -0.523243   -0.560129
      8          8           0        2.260452    1.690254   -1.423168
      9          9           0       -0.846587   -1.593668   -0.883468
     10          9           0       -1.910614   -2.212897    0.898234
     11          9           0       -2.586332   -0.500198   -0.248179
     12          1           0        2.297070    2.615305   -1.140874
 ---------------------------------------------------------------------

 Normal termination of Gaussian 16 at Sat May 24 05:15:12 2025.
