 Gaussian 16, Revision C.01,
 Gaussian 16:  ES64L-G16RevC.01  3-Jul-2019

 ----------------------------------------------------------------------
 #P M062X/Def2TZVPP Symm(None) scf(xqc) pop(None) opt(NoFreeze,TS,CalcA
 ll,NoEigentest,MaxCycle=999)
 ----------------------------------------------------------------------

 ------------------------------
 Gaussian input prepared by ASE
 ------------------------------
 Symbolic Z-matrix:
 Charge =  0 Multiplicity = 1

 SCF Done:  E(RM062X) =  -1199.56759952     A.U. after   14 cycles
 SCF Done:  E(RM062X) =  -1199.71855388     A.U. after   13 cycles
 SCF Done:  E(RM062X) =  -1199.81738686     A.U. after   12 cycles
 SCF Done:  E(RM062X) =  -1199.86489750     A.U. after   12 cycles
 SCF Done:  E(RM062X) =  -1199.88311301     A.U. after   12 cycles
 SCF Done:  E(RM062X) =  -1199.88447190     A.U. after   12 cycles
 SCF Done:  E(RM062X) =  -1199.88455574     A.U. after   11 cycles
 SCF Done:  E(RM062X) =  -1199.88455827     A.U. after    9 cycles

 Isotropic polarizability for W=    0.000000       54.01 Bohr**3.
 End of Minotr F.D. properties file   721 does not exist.

 Optimization completed.
    -- Stationary point found.

                          Input orientation:
 ---------------------------------------------------------------------
 Center     Atomic      Atomic             Coordinates (Angstroms)
 Number     Number       Type             X           Y           Z
 ---------------------------------------------------------------------
      1          6           0        2.859241   -1.410098   -1.844640
      2          6           0        2.048543   -0.128591   -1.537235
      3          9           0        2.889229    0.882495   -1.332792
      4          9           0        1.257855    0.146137   -2.570241
      5         16           0        0.987212   -0.278463   -0.037008
      6          8           0       -0.233865   -1.045134   -0.441694
      7          8           0        1.807991   -0.733850    1.017461
      8          8           0        0.276319    1.036997    0.056974
      9          9           0        3.805973   -1.587612   -0.943465
     10          9           0        2.049438   -2.459197   -1.847913
     11          9           0        3.415486   -1.286233   -3.039548
     12          1           0       -0.621173    0.174547   -0.281770
 ---------------------------------------------------------------------

 ******    1 imaginary frequencies (negative Signs) ******

                      1                      2                      3
                      A                      A                      A
 Frequencies --  -1856.0194                35.9274                64.0951
 Red. masses --      1.0957                15.7557                15.2433
 Frc consts  --      2.2239                 0.0120                 0.0369
 IR Inten    --    590.9646                 0.4665                 0.1742

                      4                      5                      6
                      A                      A                      A
 Frequencies --    126.1816               192.7539               219.6132
 Red. masses --     16.0233                13.9507                18.4931
 Frc consts  --      0.1503                 0.3054                 0.5255
 IR Inten    --      0.5449                 2.5964                 1.1509

                      7                      8                      9
                      A                      A                      A
 Frequencies --    234.1252               282.6981               309.4044
 Red. masses --     14.7740                15.1853                17.0769
 Frc consts  --      0.4771                 0.7150                 0.9632
 IR Inten    --      3.1315                 2.1978                 0.3392

                     10                     11                     12
                      A                      A                      A
 Frequencies --    333.8434               375.7669               447.0281
 Red. masses --     17.9314                18.4114                17.5878
 Frc consts  --      1.1775                 1.5317                 2.0708
 IR Inten    --      0.2669                 0.2159                 9.2079

                     13                     14                     15
                      A                      A                      A
 Frequencies --    497.3689               536.1235               570.2898
 Red. masses --     17.9482                12.6948                10.8188
 Frc consts  --      2.6159                 2.1498                 2.0731
 IR Inten    --     11.7813                34.7474                12.7581

                     16                     17                     18
                      A                      A                      A
 Frequencies --    608.1756               661.5596               712.9980
 Red. masses --     16.8853                15.9821                15.1757
 Frc consts  --      3.6797                 4.1212                 4.5454
 IR Inten    --      4.4174                15.2904               131.8146

                     19                     20                     21
                      A                      A                      A
 Frequencies --    786.4467               964.2440              1007.2708
 Red. masses --     14.4009                 1.2436                10.8617
 Frc consts  --      5.2478                 0.6812                 6.4929
 IR Inten    --      4.7769               138.9439                99.0962

                     22                     23                     24
                      A                      A                      A
 Frequencies --   1105.1102              1194.7997              1217.3182
 Red. masses --     12.7841                11.1654                13.1418
 Frc consts  --      9.1988                 9.3911                11.4740
 IR Inten    --     46.4324               123.6280               298.0426

                     25                     26                     27
                      A                      A                      A
 Frequencies --   1274.9267              1295.4264              1307.8725
 Red. masses --     13.0429                12.9296                13.1770
 Frc consts  --     12.4909                12.7839                13.2799
 IR Inten    --     89.5673               276.0105               267.8656

                     28                     29                     30
                      A                      A                      A
 Frequencies --   1387.8457              1438.3966              2200.3360
 Red. masses --     12.6618                17.1803                 1.0293
 Frc consts  --     14.3691                20.9430                 2.9360
 IR Inten    --    105.6125               344.7095               157.3813

 - Thermochemistry -
 -------------------
 Temperature   298.150 Kelvin.  Pressure   1.00000 Atm.
 Atom     1 has atomic number  6 and mass  12.00000

 Molecular mass:   199.95666 amu.
 Principal axes and moments of inertia in atomic units:
                           1         2         3
     Eigenvalues --  1108.086962155.146432275.43790
           X            0.70013  -0.09244   0.70801
           Y           -0.37819   0.79306   0.47752
           Z           -0.60563  -0.60208   0.52029
 This molecule is an asymmetric top.
 Rotational symmetry number  1.
 Warning -- assumption of classical behavior for rotation
           may cause significant error
 Rotational temperatures (Kelvin)      0.07817     0.04019     0.03806
 Rotational constants (GHZ):           1.62870     0.83741     0.79314
    1 imaginary frequencies ignored.
 Zero-point vibrational energy     127928.3 (Joules/Mol)
                                   30.57560 (Kcal/Mol)
 Warning -- explicit consideration of  15 degrees of freedom as
           vibrations may cause significant error
 Vibrational temperatures:     51.69    92.22   181.55   277.33   315.97
          (Kelvin)            336.85   406.74   445.16   480.33   540.64
                              643.17   715.60   771.36   820.52   875.03
                              951.84  1025.85  1131.52  1387.33  1449.24
                             1590.01  1719.05  1751.45  1834.34  1863.83
                             1881.74  1996.80  2069.53  3165.79

 Zero-point correction=                           0.048725 (Hartree/Particle)
 Thermal correction to Energy=                    0.058617
 Thermal correction to Enthalpy=                  0.059561
 Thermal correction to Gibbs Free Energy=         0.011972
 Sum of electronic and zero-point Energies=          -1199.835833
 Sum of electronic and thermal Energies=             -1199.825941
 Sum of electronic and thermal Enthalpies=           -1199.824997
 Sum of electronic and thermal Free Energies=        -1199.872586

                     E (Thermal)             CV                S
                      KCal/Mol        Cal/Mol-Kelvin    Cal/Mol-Kelvin
 Total                   36.783             34.198            100.160
 Electronic               0.000              0.000              0.000
 Translational            0.889              2.981             41.783
 Rotational               0.889              2.981             30.075
 Vibrational             35.005             28.236             28.301
 Vibration     1          0.594              1.982              5.472
 Vibration     2          0.597              1.971              4.327
 Vibration     3          0.611              1.927              3.003
 Vibration     4          0.635              1.850              2.201
 Vibration     5          0.647              1.811              1.962
 Vibration     6          0.654              1.789              1.847
 Vibration     7          0.682              1.706              1.517
 Vibration     8          0.699              1.656              1.366
 Vibration     9          0.715              1.608              1.241
 Vibration    10          0.747              1.522              1.056
 Vibration    11          0.806              1.367              0.805
 Vibration    12          0.853              1.256              0.665
 Vibration    13          0.891              1.170              0.574
 Vibration    14          0.926              1.096              0.504
 Vibration    15          0.967              1.014              0.436

 Normal termination of Gaussian 16 at Sat May 24 04:50:18 2025.
