 Gaussian 16, Revision C.01,
 Gaussian 16:  ES64L-G16RevC.01  3-Jul-2019

 ----------------------------------------------------------------------
 #P M062X/Def2TZVPP Symm(None) scf(xqc) pop(None) freq opt(CalcFC, Tigh
 t)
 ----------------------------------------------------------------------

 ------------------------------
 Gaussian input prepared by ASE
 ------------------------------
 Symbolic Z-matrix:
 Charge =  0 Multiplicity = 1

 SCF Done:  E(RM062X) =  -1199.92613463     A.U. after   13 cycles
 SCF Done:  E(RM062X) =  -1199.92613463     A.U. after    5 cycles
 Optimization completed.
    -- Stationary point found.
 Normal termination of Gaussian 16 at Sat May 24 05:47:38 2025.

 ---------------------------------------------------------------------
 #P Geom=AllCheck Guess=TCheck SCRF=Check GenChk RM062X/def2TZVPP Freq
 ---------------------------------------------------------------------

 Structure from the checkpoint file:  "2003847066703800600001_well.chk"
 ------------------------------
 Gaussian input prepared by ASE
 ------------------------------
 Charge =  0 Multiplicity = 1

                          Input orientation:
 ---------------------------------------------------------------------
 Center     Atomic      Atomic             Coordinates (Angstroms)
 Number     Number       Type             X           Y           Z
 ---------------------------------------------------------------------
      1          6           0       -0.572096   -1.352252    0.108767
      2          6           0       -0.004844    1.503327   -0.230540
      3          9           0       -0.951016    1.197091   -1.136570
      4          9           0       -0.587614    2.048180    0.818751
      5         16           0        0.810139   -0.109684    0.249262
      6          8           0        1.192347   -0.075850    1.617913
      7          8           0        1.730188   -0.366433   -0.816883
      8          8           0        0.930405    2.327023   -0.711780
      9          9           0       -0.867780   -1.590298   -1.150942
     10          9           0       -0.159169   -2.463127    0.685674
     11          9           0       -1.634600   -0.887146    0.741618
     12          1           0        1.500647    1.849627   -1.332686
 ---------------------------------------------------------------------

 SCF Done:  E(RM062X) =  -1199.92613463     A.U. after    1 cycles

 Isotropic polarizability for W=    0.000000       55.81 Bohr**3.
 End of Minotr F.D. properties file   721 does not exist.

                      1                      2                      3
                      A                      A                      A
 Frequencies --     45.8906                59.6903               115.2752
 Red. masses --     14.0370                17.6037                17.4259
 Frc consts  --      0.0174                 0.0370                 0.1364
 IR Inten    --      0.6995                 0.0805                 0.3736

                      4                      5                      6
                      A                      A                      A
 Frequencies --    191.3777               198.6009               236.7731
 Red. masses --     17.1798                14.4902                11.5580
 Frc consts  --      0.3707                 0.3367                 0.3818
 IR Inten    --      5.0448                 1.5975                17.1547

                      7                      8                      9
                      A                      A                      A
 Frequencies --    278.5696               296.0976               311.9441
 Red. masses --      7.2987                 8.9787                16.8393
 Frc consts  --      0.3337                 0.4638                 0.9654
 IR Inten    --      9.8350                14.0052                 1.1361

                     10                     11                     12
                      A                      A                      A
 Frequencies --    337.5150               395.5764               417.3296
 Red. masses --      9.4390                 2.5892                 2.4190
 Frc consts  --      0.6335                 0.2387                 0.2482
 IR Inten    --      3.3983                32.5870                69.9090

                     13                     14                     15
                      A                      A                      A
 Frequencies --    531.1357               535.2866               551.4601
 Red. masses --     15.2140                12.2940                11.1301
 Frc consts  --      2.5287                 2.0755                 1.9942
 IR Inten    --     35.5666                20.8824                 9.7628

                     16                     17                     18
                      A                      A                      A
 Frequencies --    575.0286               606.1025               644.0514
 Red. masses --     12.6890                14.2455                17.0454
 Frc consts  --      2.4721                 3.0833                 4.1658
 IR Inten    --      6.6479                44.0066               136.9057

                     19                     20                     21
                      A                      A                      A
 Frequencies --    778.8879               809.0811              1077.7294
 Red. masses --     14.8445                17.4833                 5.0218
 Frc consts  --      5.3060                 6.7431                 3.4366
 IR Inten    --      8.2165                 4.6158               191.8496

                     22                     23                     24
                      A                      A                      A
 Frequencies --   1158.0708              1175.4941              1266.3113
 Red. masses --     12.2511                 3.2037                 8.3582
 Frc consts  --      9.6805                 2.6082                 7.8967
 IR Inten    --    147.9690               151.9778               258.8812

                     25                     26                     27
                      A                      A                      A
 Frequencies --   1285.5785              1305.4860              1318.3247
 Red. masses --     13.1015                12.9592                 7.6843
 Frc consts  --     12.7576                13.0128                 7.8687
 IR Inten    --    188.6694               227.8282               301.3819

                     28                     29                     30
                      A                      A                      A
 Frequencies --   1408.6438              1465.7682              3787.5572
 Red. masses --      3.2191                 8.4463                 1.0655
 Frc consts  --      3.7635                10.6917                 9.0054
 IR Inten    --     88.3761               317.0058               127.5779

 - Thermochemistry -
 -------------------
 Temperature   298.150 Kelvin.  Pressure   1.00000 Atm.
 Atom     1 has atomic number  6 and mass  12.00000

 Molecular mass:   199.95666 amu.
 Principal axes and moments of inertia in atomic units:
                           1         2         3
     Eigenvalues --  1191.135302072.125722269.68637
           X            0.19518   0.95347  -0.22977
           Y            0.97375  -0.16043   0.16145
           Z           -0.11708   0.25525   0.95976
 This molecule is an asymmetric top.
 Rotational symmetry number  1.
 Warning -- assumption of classical behavior for rotation
           may cause significant error
 Rotational temperatures (Kelvin)      0.07272     0.04180     0.03816
 Rotational constants (GHZ):           1.51514     0.87096     0.79515
 Zero-point vibrational energy     138555.3 (Joules/Mol)
                                   33.11551 (Kcal/Mol)
 Warning -- explicit consideration of  17 degrees of freedom as
           vibrations may cause significant error
 Vibrational temperatures:     66.03    85.88   165.86   275.35   285.74
          (Kelvin)            340.66   400.80   426.02   448.82   485.61
                              569.15   600.44   764.19   770.16   793.43
                              827.34   872.05   926.65  1120.65  1164.09
                             1550.61  1666.21  1691.27  1821.94  1849.66
                             1878.30  1896.78  2026.72  2108.91  5449.45

 Zero-point correction=                           0.052773 (Hartree/Particle)
 Thermal correction to Energy=                    0.063215
 Thermal correction to Enthalpy=                  0.064159
 Thermal correction to Gibbs Free Energy=         0.015747
 Sum of electronic and zero-point Energies=          -1199.873362
 Sum of electronic and thermal Energies=             -1199.862919
 Sum of electronic and thermal Enthalpies=           -1199.861975
 Sum of electronic and thermal Free Energies=        -1199.910388

                     E (Thermal)             CV                S
                      KCal/Mol        Cal/Mol-Kelvin    Cal/Mol-Kelvin
 Total                   39.668             36.290            101.893
 Electronic               0.000              0.000              0.000
 Translational            0.889              2.981             41.783
 Rotational               0.889              2.981             30.106
 Vibrational             37.891             30.328             30.004
 Vibration     1          0.595              1.979              4.987
 Vibration     2          0.597              1.974              4.467
 Vibration     3          0.608              1.937              3.178
 Vibration     4          0.634              1.852              2.214
 Vibration     5          0.637              1.842              2.146
 Vibration     6          0.656              1.784              1.827
 Vibration     7          0.679              1.713              1.542
 Vibration     8          0.690              1.681              1.439
 Vibration     9          0.700              1.651              1.352
 Vibration    10          0.718              1.601              1.224
 Vibration    11          0.762              1.480              0.979
 Vibration    12          0.780              1.433              0.901
 Vibration    13          0.886              1.181              0.585
 Vibration    14          0.890              1.172              0.576
 Vibration    15          0.907              1.136              0.541
 Vibration    16          0.931              1.085              0.495
 Vibration    17          0.965              1.019              0.439

 Optimization completed.
    -- Stationary point found.
 Normal termination of Gaussian 16 at Sat May 24 05:52:00 2025.
