 Gaussian 16, Revision C.01,
 Gaussian 16:  ES64L-G16RevC.01  3-Jul-2019

 ----------------------------------------------------------------------
 #P M062X/Def2TZVPP Symm(None) scf(xqc) pop(None) opt(NoFreeze,TS,CalcA
 ll,NoEigentest,MaxCycle=999)
 ----------------------------------------------------------------------

 ------------------------------
 Gaussian input prepared by ASE
 ------------------------------
 Symbolic Z-matrix:
 Charge =  0 Multiplicity = 1

 SCF Done:  E(RM062X) =  -1199.75323570     A.U. after   15 cycles
 SCF Done:  E(RM062X) =  -1199.86434984     A.U. after   14 cycles
 SCF Done:  E(RM062X) =  -1199.91364772     A.U. after   12 cycles
 SCF Done:  E(RM062X) =  -1199.92952532     A.U. after   12 cycles
 SCF Done:  E(RM062X) =  -1199.93101485     A.U. after   14 cycles
 SCF Done:  E(RM062X) =  -1199.93105026     A.U. after   13 cycles
 SCF Done:  E(RM062X) =  -1199.93108878     A.U. after   10 cycles
 SCF Done:  E(RM062X) =  -1199.93109191     A.U. after   10 cycles
 SCF Done:  E(RM062X) =  -1199.93109193     A.U. after    7 cycles

 Isotropic polarizability for W=    0.000000       53.52 Bohr**3.
 End of Minotr F.D. properties file   721 does not exist.

 Optimization completed.
    -- Stationary point found.

                          Input orientation:
 ---------------------------------------------------------------------
 Center     Atomic      Atomic             Coordinates (Angstroms)
 Number     Number       Type             X           Y           Z
 ---------------------------------------------------------------------
      1          6           0       -0.594262   -1.310222    0.165035
      2          6           0        0.146060    0.040023    0.027629
      3          9           0       -0.087726    0.541121   -1.195209
      4          9           0       -0.327567    0.897074    0.932424
      5         16           0        1.975512   -0.102723    0.260207
      6          8           0        2.428818   -1.149691   -0.577323
      7          8           0        2.228406   -0.085888    1.651557
      8          8           0        2.428404    1.270591   -0.365820
      9          9           0       -0.324463   -2.092256   -0.862015
     10          9           0       -0.231625   -1.907734    1.288037
     11          9           0       -1.898456   -1.075682    0.198381
     12          1           0        1.704844    1.854976   -0.628705
 ---------------------------------------------------------------------

 ******    1 imaginary frequencies (negative Signs) ******

                      1                      2                      3
                      A                      A                      A
 Frequencies --   -485.8847                20.5239                58.7241
 Red. masses --      1.1202                13.2944                17.4650
 Frc consts  --      0.1558                 0.0033                 0.0355
 IR Inten    --    104.9981                 1.4164                 0.0326

                      4                      5                      6
                      A                      A                      A
 Frequencies --    128.9815               198.8854               221.8463
 Red. masses --     15.6086                15.5960                17.1605
 Frc consts  --      0.1530                 0.3635                 0.4976
 IR Inten    --      2.5582                 5.8229                 0.4973

                      7                      8                      9
                      A                      A                      A
 Frequencies --    252.0635               283.9732               320.1876
 Red. masses --      9.1209                14.1342                15.2588
 Frc consts  --      0.3414                 0.6715                 0.9217
 IR Inten    --     15.0674                 0.7908                 0.1943

                     10                     11                     12
                      A                      A                      A
 Frequencies --    322.6704               375.5458               438.4794
 Red. masses --     17.1918                17.4355                12.8948
 Frc consts  --      1.0546                 1.4488                 1.4607
 IR Inten    --      0.1326                 0.2752                 2.2133

                     13                     14                     15
                      A                      A                      A
 Frequencies --    503.6878               518.9770               543.3647
 Red. masses --     13.7942                15.0770                16.3771
 Frc consts  --      2.0619                 2.3926                 2.8488
 IR Inten    --     11.8630                16.0317                25.0271

                     16                     17                     18
                      A                      A                      A
 Frequencies --    608.2910               616.9532               663.5149
 Red. masses --     17.5064                11.5465                14.3097
 Frc consts  --      3.8165                 2.5894                 3.7118
 IR Inten    --      5.6751                71.5922                20.9531

                     19                     20                     21
                      A                      A                      A
 Frequencies --    778.3521               873.3946              1032.0101
 Red. masses --     15.8230                16.7046                 5.8654
 Frc consts  --      5.6479                 7.5077                 3.6806
 IR Inten    --     40.6445               212.6591                86.5200

                     22                     23                     24
                      A                      A                      A
 Frequencies --   1087.0390              1195.9717              1246.8103
 Red. masses --      1.3517                12.3471                13.2459
 Frc consts  --      0.9410                10.4054                12.1320
 IR Inten    --    148.7473               203.1516               107.6619

                     25                     26                     27
                      A                      A                      A
 Frequencies --   1263.0599              1305.1571              1310.2331
 Red. masses --     13.2997                12.5662                13.1266
 Frc consts  --     12.5009                12.6119                13.2769
 IR Inten    --     12.1290               318.0370               251.7644

                     28                     29                     30
                      A                      A                      A
 Frequencies --   1388.6638              1487.9805              3829.5994
 Red. masses --     12.6360                20.5559                 1.0665
 Frc consts  --     14.3567                26.8152                 9.2153
 IR Inten    --     80.9693               295.8236               173.3634

 - Thermochemistry -
 -------------------
 Temperature   298.150 Kelvin.  Pressure   1.00000 Atm.
 Atom     1 has atomic number  6 and mass  12.00000

 Molecular mass:   199.95666 amu.
 Principal axes and moments of inertia in atomic units:
                           1         2         3
     Eigenvalues --  1127.064432132.325902271.39040
           X            0.89826  -0.42666  -0.10532
           Y            0.43912   0.88096   0.17633
           Z            0.01755  -0.20464   0.97868
 This molecule is an asymmetric top.
 Rotational symmetry number  1.
 Warning -- assumption of classical behavior for rotation
           may cause significant error
 Rotational temperatures (Kelvin)      0.07685     0.04062     0.03813
 Rotational constants (GHZ):           1.60128     0.84637     0.79455
    1 imaginary frequencies ignored.
 Zero-point vibrational energy     136822.5 (Joules/Mol)
                                   32.70137 (Kcal/Mol)
 Warning -- explicit consideration of  16 degrees of freedom as
           vibrations may cause significant error
 Vibrational temperatures:     29.53    84.49   185.58   286.15   319.19
          (Kelvin)            362.66   408.57   460.68   464.25   540.33
                              630.87   724.69   746.69   781.78   875.20
                              887.66   954.65  1119.88  1256.62  1484.83
                             1564.01  1720.74  1793.88  1817.26  1877.83
                             1885.13  1997.98  2140.87  5509.94

 Zero-point correction=                           0.052113 (Hartree/Particle)
 Thermal correction to Energy=                    0.062093
 Thermal correction to Enthalpy=                  0.063037
 Thermal correction to Gibbs Free Energy=         0.014828
 Sum of electronic and zero-point Energies=          -1199.878979
 Sum of electronic and thermal Energies=             -1199.868999
 Sum of electronic and thermal Enthalpies=           -1199.868055
 Sum of electronic and thermal Free Energies=        -1199.916264

                     E (Thermal)             CV                S
                      KCal/Mol        Cal/Mol-Kelvin    Cal/Mol-Kelvin
 Total                   38.964             34.533            101.464
 Electronic               0.000              0.000              0.000
 Translational            0.889              2.981             41.783
 Rotational               0.889              2.981             30.080
 Vibrational             37.186             28.571             29.600
 Vibration     1          0.593              1.986              6.583
 Vibration     2          0.596              1.974              4.500
 Vibration     3          0.611              1.924              2.961
 Vibration     4          0.637              1.841              2.143
 Vibration     5          0.648              1.808              1.944
 Vibration     6          0.664              1.759              1.716
 Vibration     7          0.682              1.703              1.510
 Vibration     8          0.706              1.635              1.309
 Vibration     9          0.708              1.630              1.297
 Vibration    10          0.746              1.522              1.057
 Vibration    11          0.799              1.386              0.831
 Vibration    12          0.859              1.242              0.649
 Vibration    13          0.874              1.208              0.612
 Vibration    14          0.898              1.154              0.558
 Vibration    15          0.967              1.014              0.436
 Vibration    16          0.977              0.996              0.421

 Normal termination of Gaussian 16 at Sat May 24 06:00:45 2025.
