 Gaussian 16, Revision C.01,
 Gaussian 16:  ES64L-G16RevC.01  3-Jul-2019

 -----------------------------------------------------------------
 #P M062X/Def2TZVPP Symm(None) scf(xqc) pop(None) freq opt(CalcFC)
 -----------------------------------------------------------------

 ------------------------------
 Gaussian input prepared by ASE
 ------------------------------
 Symbolic Z-matrix:
 Charge =  0 Multiplicity = 1

 SCF Done:  E(RM062X) =  -1199.82413213     A.U. after   15 cycles
 SCF Done:  E(RM062X) =  -1199.82719706     A.U. after   13 cycles
 SCF Done:  E(RM062X) =  -1199.82673207     A.U. after   15 cycles
 SCF Done:  E(RM062X) =  -1199.82792609     A.U. after   13 cycles
 SCF Done:  E(RM062X) =  -1199.82805543     A.U. after   12 cycles
 SCF Done:  E(RM062X) =  -1199.82808540     A.U. after   12 cycles
 SCF Done:  E(RM062X) =  -1199.82811325     A.U. after   12 cycles
 SCF Done:  E(RM062X) =  -1199.82812242     A.U. after   12 cycles
 SCF Done:  E(RM062X) =  -1199.82812496     A.U. after   12 cycles
 SCF Done:  E(RM062X) =  -1199.82812617     A.U. after   10 cycles
 SCF Done:  E(RM062X) =  -1199.82812689     A.U. after   10 cycles
 SCF Done:  E(RM062X) =  -1199.82812738     A.U. after   10 cycles
 Optimization completed.
    -- Stationary point found.
 Normal termination of Gaussian 16 at Sat May 24 05:17:36 2025.

 ---------------------------------------------------------------------
 #P Geom=AllCheck Guess=TCheck SCRF=Check GenChk RM062X/def2TZVPP Freq
 ---------------------------------------------------------------------

 Structure from the checkpoint file:  "2003846667223680600001_r12_insertion_R_3_2_5_IRC_R_prod.chk"
 ------------------------------
 Gaussian input prepared by ASE
 ------------------------------
 Charge =  0 Multiplicity = 1

                          Input orientation:
 ---------------------------------------------------------------------
 Center     Atomic      Atomic             Coordinates (Angstroms)
 Number     Number       Type             X           Y           Z
 ---------------------------------------------------------------------
      1          6           0       -1.659486   -1.214995    0.198529
      2          6           0       -0.720086   -0.632145    1.296829
      3          9           0        0.291453    0.850032   -0.684147
      4          9           0       -1.379090    0.349983    1.800673
      5         16           0        1.820972    0.891499   -0.359908
      6          8           0        1.929893    1.538658    0.888188
      7          8           0        2.326268   -0.383858   -0.646398
      8          8           0        2.266481    1.854679   -1.501007
      9          9           0       -0.949365   -1.814176   -0.741291
     10          9           0       -2.412155   -2.125857    0.823414
     11          9           0       -2.461302   -0.323700   -0.375961
     12          1           0        2.194318    2.775395   -1.211396
 ---------------------------------------------------------------------

 SCF Done:  E(RM062X) =  -1199.82812738     A.U. after    1 cycles

 Isotropic polarizability for W=    0.000000       54.46 Bohr**3.
 End of Minotr F.D. properties file   721 does not exist.

                      1                      2                      3
                      A                      A                      A
 Frequencies --     20.5291                24.5632                31.7848
 Red. masses --     16.1810                13.3356                12.6405
 Frc consts  --      0.0040                 0.0047                 0.0075
 IR Inten    --      0.1870                 1.3604                 1.6789

                      4                      5                      6
                      A                      A                      A
 Frequencies --     50.4298                66.1845                69.1894
 Red. masses --     16.9815                14.6455                17.3679
 Frc consts  --      0.0254                 0.0378                 0.0490
 IR Inten    --      0.7294                 0.7678                 0.9437

                      7                      8                      9
                      A                      A                      A
 Frequencies --    122.3715               260.8650               304.6812
 Red. masses --     15.0194                18.3774                 1.3909
 Frc consts  --      0.1325                 0.7368                 0.0761
 IR Inten    --      0.2254                 2.4829                75.9893

                     10                     11                     12
                      A                      A                      A
 Frequencies --    344.3665               389.0128               424.1101
 Red. masses --     14.1061                14.8231                 6.6367
 Frc consts  --      0.9856                 1.3216                 0.7033
 IR Inten    --     14.2288                 0.9098                11.2322

                     13                     14                     15
                      A                      A                      A
 Frequencies --    426.3135               524.6835               543.0054
 Red. masses --      4.8401                 7.3757                17.7678
 Frc consts  --      0.5183                 1.1963                 3.0867
 IR Inten    --     18.3060                30.9696                21.8381

                     16                     17                     18
                      A                      A                      A
 Frequencies --    548.0732               552.0704               564.4811
 Red. masses --     16.6864                18.1928                15.5320
 Frc consts  --      2.9532                 3.2669                 2.9159
 IR Inten    --     15.1708                19.1911                41.5890

                     19                     20                     21
                      A                      A                      A
 Frequencies --    701.5251               834.4009               853.6439
 Red. masses --     15.6019                20.5709                15.5603
 Frc consts  --      4.5239                 8.4382                 6.6807
 IR Inten    --     32.9667               220.9454                40.0742

                     22                     23                     24
                      A                      A                      A
 Frequencies --    939.1452              1160.6693              1215.1629
 Red. masses --     17.5253                 1.1882                13.3409
 Frc consts  --      9.1071                 0.9431                11.6066
 IR Inten    --    287.8692                91.8049               291.6274

                     25                     26                     27
                      A                      A                      A
 Frequencies --   1277.7617              1288.0074              1305.1233
 Red. masses --     13.1048                18.3690                13.2270
 Frc consts  --     12.6060                17.9545                13.2744
 IR Inten    --     79.0471               207.5108               314.3131

                     28                     29                     30
                      A                      A                      A
 Frequencies --   1354.7754              1537.5792              3811.5845
 Red. masses --     13.3509                15.1428                 1.0657
 Frc consts  --     14.4376                21.0927                 9.1223
 IR Inten    --     90.7726               299.5074               196.5644

 - Thermochemistry -
 -------------------
 Temperature   298.150 Kelvin.  Pressure   1.00000 Atm.
 Atom     1 has atomic number  6 and mass  12.00000

 Molecular mass:   199.95666 amu.
 Principal axes and moments of inertia in atomic units:
                           1         2         3
     Eigenvalues --   939.645833522.067783782.31898
           X            0.84053  -0.13393  -0.52495
           Y            0.49994   0.56507   0.65632
           Z           -0.20874   0.81410  -0.54191
 This molecule is an asymmetric top.
 Rotational symmetry number  1.
 Warning -- assumption of classical behavior for rotation
           may cause significant error
 Rotational temperatures (Kelvin)      0.09218     0.02459     0.02290
 Rotational constants (GHZ):           1.92066     0.51241     0.47715
 Zero-point vibrational energy     128874.3 (Joules/Mol)
                                   30.80169 (Kcal/Mol)
 Warning -- explicit consideration of  18 degrees of freedom as
           vibrations may cause significant error
 Vibrational temperatures:     29.54    35.34    45.73    72.56    95.22
          (Kelvin)             99.55   176.07   375.33   438.37   495.47
                              559.70   610.20   613.37   754.90   781.26
                              788.56   794.31   812.16  1009.34  1200.52
                             1228.20  1351.22  1669.94  1748.35  1838.41
                             1853.16  1877.78  1949.22  2212.23  5484.02

 Zero-point correction=                           0.049086 (Hartree/Particle)
 Thermal correction to Energy=                    0.061183
 Thermal correction to Enthalpy=                  0.062128
 Thermal correction to Gibbs Free Energy=         0.005946
 Sum of electronic and zero-point Energies=          -1199.779042
 Sum of electronic and thermal Energies=             -1199.766944
 Sum of electronic and thermal Enthalpies=           -1199.766000
 Sum of electronic and thermal Free Energies=        -1199.822182

                     E (Thermal)             CV                S
                      KCal/Mol        Cal/Mol-Kelvin    Cal/Mol-Kelvin
 Total                   38.393             38.332            118.244
 Electronic               0.000              0.000              0.000
 Translational            0.889              2.981             41.783
 Rotational               0.889              2.981             30.905
 Vibrational             36.616             32.371             45.556
 Vibration     1          0.593              1.986              6.582
 Vibration     2          0.593              1.985              6.226
 Vibration     3          0.594              1.983              5.715
 Vibration     4          0.595              1.977              4.800
 Vibration     5          0.598              1.970              4.264
 Vibration     6          0.598              1.969              4.176
 Vibration     7          0.610              1.930              3.063
 Vibration     8          0.669              1.744              1.656
 Vibration     9          0.696              1.665              1.391
 Vibration    10          0.723              1.587              1.192
 Vibration    11          0.757              1.494              1.004
 Vibration    12          0.786              1.418              0.878
 Vibration    13          0.788              1.413              0.871
 Vibration    14          0.880              1.195              0.599
 Vibration    15          0.898              1.155              0.559
 Vibration    16          0.903              1.144              0.548
 Vibration    17          0.907              1.135              0.540
 Vibration    18          0.920              1.108              0.515

                           ! Non-Optimized Parameters !
 Normal termination of Gaussian 16 at Sat May 24 05:21:28 2025.
