 Gaussian 16, Revision C.01,
 Gaussian 16:  ES64L-G16RevC.01  3-Jul-2019

 -----------------------------------------------------------------
 #P M062X/Def2TZVPP Symm(None) scf(xqc) pop(None) freq opt(CalcFC)
 -----------------------------------------------------------------

 ------------------------------
 Gaussian input prepared by ASE
 ------------------------------
 Symbolic Z-matrix:
 Charge =  0 Multiplicity = 1

 SCF Done:  E(RM062X) =  -1199.83966408     A.U. after   14 cycles
 SCF Done:  E(RM062X) =  -1199.87656999     A.U. after   13 cycles
 SCF Done:  E(RM062X) =  -1199.90825082     A.U. after   13 cycles
 SCF Done:  E(RM062X) =  -1199.89173148     A.U. after   13 cycles
 SCF Done:  E(RM062X) =  -1199.89705200     A.U. after   13 cycles
 SCF Done:  E(RM062X) =  -1199.91861923     A.U. after   10 cycles
 SCF Done:  E(RM062X) =  -1199.92219912     A.U. after   11 cycles
 SCF Done:  E(RM062X) =  -1199.92342223     A.U. after   11 cycles
 SCF Done:  E(RM062X) =  -1199.92416964     A.U. after   11 cycles
 SCF Done:  E(RM062X) =  -1199.92475745     A.U. after   11 cycles
 SCF Done:  E(RM062X) =  -1199.92555309     A.U. after   11 cycles
 SCF Done:  E(RM062X) =  -1199.92574826     A.U. after   10 cycles
 SCF Done:  E(RM062X) =  -1199.92590867     A.U. after   10 cycles
 SCF Done:  E(RM062X) =  -1199.92602477     A.U. after   10 cycles
 SCF Done:  E(RM062X) =  -1199.92608946     A.U. after   10 cycles
 SCF Done:  E(RM062X) =  -1199.92612892     A.U. after   10 cycles
 SCF Done:  E(RM062X) =  -1199.92613397     A.U. after    8 cycles
 SCF Done:  E(RM062X) =  -1199.92613456     A.U. after    6 cycles
 SCF Done:  E(RM062X) =  -1199.92613463     A.U. after    6 cycles
 Optimization completed.
    -- Stationary point found.
 Normal termination of Gaussian 16 at Sat May 24 05:35:31 2025.

 ---------------------------------------------------------------------
 #P Geom=AllCheck Guess=TCheck SCRF=Check GenChk RM062X/def2TZVPP Freq
 ---------------------------------------------------------------------

 Structure from the checkpoint file:  "2003846667223680600001_r12_insertion_R_5_2_1_IRC_F_prod.chk"
 ------------------------------
 Gaussian input prepared by ASE
 ------------------------------
 Charge =  0 Multiplicity = 1

                          Input orientation:
 ---------------------------------------------------------------------
 Center     Atomic      Atomic             Coordinates (Angstroms)
 Number     Number       Type             X           Y           Z
 ---------------------------------------------------------------------
      1          6           0       -0.572047   -1.352252    0.108721
      2          6           0       -0.004891    1.503404   -0.230584
      3          9           0       -0.951252    1.197160   -1.136401
      4          9           0       -0.587505    2.048417    0.818720
      5         16           0        0.810040   -0.109618    0.249327
      6          8           0        1.192141   -0.075677    1.618002
      7          8           0        1.730171   -0.366467   -0.816723
      8          8           0        0.930394    2.326912   -0.712044
      9          9           0       -0.867853   -1.590054   -1.151004
     10          9           0       -0.158906   -2.463207    0.685337
     11          9           0       -1.634539   -0.887425    0.741797
     12          1           0        1.500852    1.849265   -1.332564
 ---------------------------------------------------------------------

 SCF Done:  E(RM062X) =  -1199.92613463     A.U. after    1 cycles

 Isotropic polarizability for W=    0.000000       55.81 Bohr**3.
 End of Minotr F.D. properties file   721 does not exist.

                      1                      2                      3
                      A                      A                      A
 Frequencies --     45.8253                59.7120               115.2989
 Red. masses --     14.0363                17.6083                17.4277
 Frc consts  --      0.0174                 0.0370                 0.1365
 IR Inten    --      0.7003                 0.0798                 0.3741

                      4                      5                      6
                      A                      A                      A
 Frequencies --    191.3804               198.6069               236.7814
 Red. masses --     17.1801                14.4986                11.5625
 Frc consts  --      0.3707                 0.3369                 0.3819
 IR Inten    --      5.0430                 1.5914                17.1473

                      7                      8                      9
                      A                      A                      A
 Frequencies --    278.5887               296.1198               311.9483
 Red. masses --      7.3046                 8.9827                16.8396
 Frc consts  --      0.3340                 0.4641                 0.9655
 IR Inten    --      9.8252                14.0038                 1.1378

                     10                     11                     12
                      A                      A                      A
 Frequencies --    337.5256               395.6362               417.3598
 Red. masses --      9.4462                 2.5993                 2.4091
 Frc consts  --      0.6340                 0.2397                 0.2472
 IR Inten    --      3.3940                32.3846                70.1180

                     13                     14                     15
                      A                      A                      A
 Frequencies --    531.1401               535.3115               551.4574
 Red. masses --     15.2241                12.2699                11.1354
 Frc consts  --      2.5305                 2.0716                 1.9952
 IR Inten    --     35.5839                20.8661                 9.7673

                     16                     17                     18
                      A                      A                      A
 Frequencies --    575.0310               606.1097               644.0656
 Red. masses --     12.6936                14.2378                17.0385
 Frc consts  --      2.4730                 3.0817                 4.1643
 IR Inten    --      6.6461                44.0232               136.8669

                     19                     20                     21
                      A                      A                      A
 Frequencies --    778.8875               809.0917              1077.6835
 Red. masses --     14.8402                17.4830                 5.0178
 Frc consts  --      5.3044                 6.7432                 3.4336
 IR Inten    --      8.2217                 4.6223               191.7768

                     22                     23                     24
                      A                      A                      A
 Frequencies --   1158.1034              1175.5344              1266.3210
 Red. masses --     12.2674                 3.2045                 8.3576
 Frc consts  --      9.6939                 2.6091                 7.8962
 IR Inten    --    147.9077               152.0164               258.9596

                     25                     26                     27
                      A                      A                      A
 Frequencies --   1285.5796              1305.4944              1318.3343
 Red. masses --     13.1013                12.9613                 7.6816
 Frc consts  --     12.7574                13.0151                 7.8660
 IR Inten    --    188.6341               227.8247               301.4660

                     28                     29                     30
                      A                      A                      A
 Frequencies --   1408.6112              1465.7689              3787.4885
 Red. masses --      3.2188                 8.4494                 1.0655
 Frc consts  --      3.7629                10.6956                 9.0051
 IR Inten    --     88.4313               316.9667               127.5889

 - Thermochemistry -
 -------------------
 Temperature   298.150 Kelvin.  Pressure   1.00000 Atm.
 Atom     1 has atomic number  6 and mass  12.00000

 Molecular mass:   199.95666 amu.
 Principal axes and moments of inertia in atomic units:
                           1         2         3
     Eigenvalues --  1191.112612072.154062269.70536
           X            0.19512   0.95347  -0.22984
           Y            0.97377  -0.16036   0.16142
           Z           -0.11705   0.25530   0.95975
 This molecule is an asymmetric top.
 Rotational symmetry number  1.
 Warning -- assumption of classical behavior for rotation
           may cause significant error
 Rotational temperatures (Kelvin)      0.07272     0.04180     0.03816
 Rotational constants (GHZ):           1.51517     0.87095     0.79514
 Zero-point vibrational energy     138556.3 (Joules/Mol)
                                   33.11574 (Kcal/Mol)
 Warning -- explicit consideration of  17 degrees of freedom as
           vibrations may cause significant error
 Vibrational temperatures:     65.93    85.91   165.89   275.35   285.75
          (Kelvin)            340.68   400.83   426.05   448.82   485.62
                              569.23   600.49   764.19   770.19   793.42
                              827.34   872.06   926.67  1120.65  1164.10
                             1550.55  1666.25  1691.33  1821.95  1849.66
                             1878.32  1896.79  2026.68  2108.91  5449.35

 Zero-point correction=                           0.052773 (Hartree/Particle)
 Thermal correction to Energy=                    0.063215
 Thermal correction to Enthalpy=                  0.064160
 Thermal correction to Gibbs Free Energy=         0.015746
 Sum of electronic and zero-point Energies=          -1199.873361
 Sum of electronic and thermal Energies=             -1199.862919
 Sum of electronic and thermal Enthalpies=           -1199.861975
 Sum of electronic and thermal Free Energies=        -1199.910388

                     E (Thermal)             CV                S
                      KCal/Mol        Cal/Mol-Kelvin    Cal/Mol-Kelvin
 Total                   39.668             36.290            101.894
 Electronic               0.000              0.000              0.000
 Translational            0.889              2.981             41.783
 Rotational               0.889              2.981             30.106
 Vibrational             37.891             30.328             30.005
 Vibration     1          0.595              1.979              4.990
 Vibration     2          0.597              1.974              4.467
 Vibration     3          0.608              1.937              3.178
 Vibration     4          0.634              1.852              2.214
 Vibration     5          0.637              1.842              2.146
 Vibration     6          0.656              1.784              1.827
 Vibration     7          0.679              1.713              1.542
 Vibration     8          0.690              1.681              1.439
 Vibration     9          0.700              1.651              1.352
 Vibration    10          0.718              1.601              1.224
 Vibration    11          0.762              1.479              0.979
 Vibration    12          0.780              1.433              0.901
 Vibration    13          0.886              1.181              0.585
 Vibration    14          0.890              1.172              0.575
 Vibration    15          0.907              1.136              0.541
 Vibration    16          0.931              1.085              0.495
 Vibration    17          0.965              1.019              0.439

 Optimization completed.
    -- Stationary point found.
 Normal termination of Gaussian 16 at Sat May 24 05:40:10 2025.
