 Gaussian 16, Revision C.01,
 Gaussian 16:  ES64L-G16RevC.01  3-Jul-2019

 -----------------------------------------------------------------
 #P M062X/Def2TZVPP Symm(None) scf(xqc) pop(None) freq opt(CalcFC)
 -----------------------------------------------------------------

 ------------------------------
 Gaussian input prepared by ASE
 ------------------------------
 Symbolic Z-matrix:
 Charge =  0 Multiplicity = 1

 SCF Done:  E(RM062X) =  -1199.71749136     A.U. after   15 cycles
 SCF Done:  E(RM062X) =  -1199.71877450     A.U. after   14 cycles
 SCF Done:  E(RM062X) =  -1199.71881447     A.U. after   11 cycles
 SCF Done:  E(RM062X) =  -1199.71883889     A.U. after   11 cycles
 SCF Done:  E(RM062X) =  -1199.71884551     A.U. after   10 cycles
 SCF Done:  E(RM062X) =  -1199.71884566     A.U. after    7 cycles
 Optimization completed.
    -- Stationary point found.
 Normal termination of Gaussian 16 at Sat May 24 07:31:50 2025.

 ---------------------------------------------------------------------
 #P Geom=AllCheck Guess=TCheck SCRF=Check GenChk RM062X/def2TZVPP Freq
 ---------------------------------------------------------------------

 Structure from the checkpoint file:  "2003846667223680600001_r13_insertion_ROR_3_2_5_6_IRC_R_prod.chk"
 ------------------------------
 Gaussian input prepared by ASE
 ------------------------------
 Charge =  0 Multiplicity = 1

                          Input orientation:
 ---------------------------------------------------------------------
 Center     Atomic      Atomic             Coordinates (Angstroms)
 Number     Number       Type             X           Y           Z
 ---------------------------------------------------------------------
      1          6           0        0.251911   -1.357341   -0.709996
      2          6           0        0.760453   -0.346169    0.266650
      3          9           0       -2.158823    0.658141    0.223527
      4          9           0        1.260485   -0.907258    1.385974
      5         16           0        0.219261    1.166932    0.444424
      6          8           0       -1.320091    1.492387    0.965871
      7          8           0        0.928807    1.983677    1.354234
      8          8           0       -0.016674    1.723058   -0.986178
      9          9           0       -0.150375   -0.786444   -1.853526
     10          9           0        1.227640   -2.216030   -1.002223
     11          9           0       -0.769040   -2.078035   -0.241971
     12          1           0        0.657575    1.395688   -1.600539
 ---------------------------------------------------------------------

 SCF Done:  E(RM062X) =  -1199.71884566     A.U. after    1 cycles

 Isotropic polarizability for W=    0.000000       59.26 Bohr**3.
 End of Minotr F.D. properties file   721 does not exist.

                      1                      2                      3
                      A                      A                      A
 Frequencies --     38.7711                67.5907               102.1362
 Red. masses --     15.5709                15.9830                17.3560
 Frc consts  --      0.0138                 0.0430                 0.1067
 IR Inten    --      0.8550                 0.9135                 0.6730

                      4                      5                      6
                      A                      A                      A
 Frequencies --    184.0997               196.4421               207.6774
 Red. masses --      6.0788                14.4112                13.3761
 Frc consts  --      0.1214                 0.3277                 0.3399
 IR Inten    --     11.6024                 5.2719                 4.7327

                      7                      8                      9
                      A                      A                      A
 Frequencies --    245.2496               303.1472               331.1761
 Red. masses --     16.8464                 1.4475                 5.6455
 Frc consts  --      0.5970                 0.0784                 0.3648
 IR Inten    --      3.9198                86.4811                17.0164

                     10                     11                     12
                      A                      A                      A
 Frequencies --    333.4851               346.5526               423.7066
 Red. masses --     16.0456                11.1293                14.2613
 Frc consts  --      1.0514                 0.7875                 1.5085
 IR Inten    --      4.3138                 3.6405                17.2160

                     13                     14                     15
                      A                      A                      A
 Frequencies --    467.0495               479.6629               503.6342
 Red. masses --     14.1402                 8.0961                17.3331
 Frc consts  --      1.8173                 1.0975                 2.5903
 IR Inten    --      7.1340                13.0416                17.4539

                     16                     17                     18
                      A                      A                      A
 Frequencies --    585.1146               604.5454               616.9000
 Red. masses --     15.9928                15.9197                16.6582
 Frc consts  --      3.2259                 3.4280                 3.7351
 IR Inten    --     28.0551                 5.8868                25.8721

                     19                     20                     21
                      A                      A                      A
 Frequencies --    739.6950               795.2359               948.5674
 Red. masses --     15.2111                15.0074                17.2055
 Frc consts  --      4.9036                 5.5918                 9.1212
 IR Inten    --    132.2875               109.0474               160.5058

                     22                     23                     24
                      A                      A                      A
 Frequencies --   1064.9846              1101.3501              1164.4784
 Red. masses --     15.9302                 3.3856                 1.6195
 Frc consts  --     10.6453                 2.4196                 1.2939
 IR Inten    --      8.1078                58.8004               226.5728

                     25                     26                     27
                      A                      A                      A
 Frequencies --   1221.0450              1237.8748              1320.7650
 Red. masses --     12.5280                12.8149                13.9188
 Frc consts  --     11.0051                11.5696                14.3055
 IR Inten    --    271.0887               261.4507                29.5481

                     28                     29                     30
                      A                      A                      A
 Frequencies --   1370.8689              1429.5421              3797.2038
 Red. masses --     12.3795                16.6865                 1.0654
 Frc consts  --     13.7071                20.0913                 9.0513
 IR Inten    --    382.1316               208.9823               184.2208

 - Thermochemistry -
 -------------------
 Temperature   298.150 Kelvin.  Pressure   1.00000 Atm.
 Atom     1 has atomic number  6 and mass  12.00000

 Molecular mass:   199.95666 amu.
 Principal axes and moments of inertia in atomic units:
                           1         2         3
     Eigenvalues --  1227.212262204.491522531.44293
           X           -0.20534   0.86753  -0.45302
           Y            0.90632  -0.00613  -0.42255
           Z            0.36935   0.49735   0.78500
 This molecule is an asymmetric top.
 Rotational symmetry number  1.
 Warning -- assumption of classical behavior for rotation
           may cause significant error
 Rotational temperatures (Kelvin)      0.07058     0.03929     0.03422
 Rotational constants (GHZ):           1.47060     0.81867     0.71293
 Zero-point vibrational energy     132956.3 (Joules/Mol)
                                   31.77731 (Kcal/Mol)
 Warning -- explicit consideration of  18 degrees of freedom as
           vibrations may cause significant error
 Vibrational temperatures:     55.78    97.25   146.95   264.88   282.64
          (Kelvin)            298.80   352.86   436.16   476.49   479.81
                              498.61   609.62   671.98   690.13   724.62
                              841.85   869.81   887.58  1064.26  1144.17
                             1364.78  1532.28  1584.60  1675.42  1756.81
                             1781.03  1900.29  1972.37  2056.79  5463.33

 Zero-point correction=                           0.050640 (Hartree/Particle)
 Thermal correction to Energy=                    0.061423
 Thermal correction to Enthalpy=                  0.062368
 Thermal correction to Gibbs Free Energy=         0.013127
 Sum of electronic and zero-point Energies=          -1199.668205
 Sum of electronic and thermal Energies=             -1199.657422
 Sum of electronic and thermal Enthalpies=           -1199.656478
 Sum of electronic and thermal Free Energies=        -1199.705718

                     E (Thermal)             CV                S
                      KCal/Mol        Cal/Mol-Kelvin    Cal/Mol-Kelvin
 Total                   38.544             37.393            103.635
 Electronic               0.000              0.000              0.000
 Translational            0.889              2.981             41.783
 Rotational               0.889              2.981             30.305
 Vibrational             36.766             31.431             31.546
 Vibration     1          0.594              1.981              5.321
 Vibration     2          0.598              1.970              4.222
 Vibration     3          0.604              1.947              3.413
 Vibration     4          0.631              1.862              2.286
 Vibration     5          0.636              1.845              2.166
 Vibration     6          0.641              1.829              2.064
 Vibration     7          0.660              1.771              1.764
 Vibration     8          0.695              1.668              1.399
 Vibration     9          0.714              1.613              1.254
 Vibration    10          0.715              1.609              1.243
 Vibration    11          0.725              1.582              1.182
 Vibration    12          0.786              1.419              0.879
 Vibration    13          0.824              1.323              0.746
 Vibration    14          0.836              1.295              0.711
 Vibration    15          0.859              1.242              0.649
 Vibration    16          0.942              1.064              0.476
 Vibration    17          0.963              1.022              0.442
 Vibration    18          0.977              0.996              0.421

 Optimization completed.
    -- Stationary point found.
 Normal termination of Gaussian 16 at Sat May 24 07:35:34 2025.
