 Gaussian 16, Revision C.01,
 Gaussian 16:  ES64L-G16RevC.01  3-Jul-2019

 ----------------------------------------------------------------------
 #P M062X/Def2TZVPP Symm(None) scf(xqc) pop(None) opt(NoFreeze,TS,CalcA
 ll,NoEigentest,MaxCycle=999)
 ----------------------------------------------------------------------

 ------------------------------
 Gaussian input prepared by ASE
 ------------------------------
 Symbolic Z-matrix:
 Charge =  0 Multiplicity = 1

 SCF Done:  E(RM062X) =  -1199.66773012     A.U. after   16 cycles
 SCF Done:  E(RM062X) =  -1199.67844057     A.U. after   15 cycles
 SCF Done:  E(RM062X) =  -1199.68632362     A.U. after   15 cycles
 SCF Done:  E(RM062X) =  -1199.69541988     A.U. after   14 cycles
 SCF Done:  E(RM062X) =  -1199.70394878     A.U. after   14 cycles
 SCF Done:  E(RM062X) =  -1199.71248125     A.U. after   14 cycles
 SCF Done:  E(RM062X) =  -1199.72008453     A.U. after   14 cycles
 SCF Done:  E(RM062X) =  -1199.72633677     A.U. after   13 cycles
 SCF Done:  E(RM062X) =  -1199.73193045     A.U. after   13 cycles
 SCF Done:  E(RM062X) =  -1199.73732196     A.U. after   13 cycles
 SCF Done:  E(RM062X) =  -1199.74188788     A.U. after   13 cycles
 SCF Done:  E(RM062X) =  -1199.74465361     A.U. after   14 cycles
 SCF Done:  E(RM062X) =  -1199.74626604     A.U. after   13 cycles
 SCF Done:  E(RM062X) =  -1199.74717257     A.U. after   13 cycles
 SCF Done:  E(RM062X) =  -1199.74799317     A.U. after   13 cycles
 SCF Done:  E(RM062X) =  -1199.74833359     A.U. after   12 cycles
 SCF Done:  E(RM062X) =  -1199.74835528     A.U. after   11 cycles

 Isotropic polarizability for W=    0.000000       62.00 Bohr**3.
 End of Minotr F.D. properties file   721 does not exist.

 Optimization completed.
    -- Stationary point found.

                          Input orientation:
 ---------------------------------------------------------------------
 Center     Atomic      Atomic             Coordinates (Angstroms)
 Number     Number       Type             X           Y           Z
 ---------------------------------------------------------------------
      1          6           0       -0.138755    0.497464    0.008515
      2          6           0        1.801622   -0.190227    0.392776
      3          9           0        2.153006   -0.365017    1.666249
      4          9           0        2.352508   -1.158853   -0.332325
      5         16           0        2.486507    1.455033   -0.164077
      6          8           0        3.195937    2.303429    0.722938
      7          8           0        2.575702    1.563991   -1.576347
      8          8           0        0.760882    1.883152    0.174678
      9          9           0       -0.512742   -0.100768    1.119159
     10          9           0       -1.256406    1.289824   -0.252615
     11          9           0       -0.097990   -0.219325   -1.101988
     12          1           0        0.375916    2.633435   -0.310324
 ---------------------------------------------------------------------

 ******    1 imaginary frequencies (negative Signs) ******

                      1                      2                      3
                      A                      A                      A
 Frequencies --   -550.3781                54.3508                96.6295
 Red. masses --     10.4125                13.7339                14.0726
 Frc consts  --      1.8583                 0.0239                 0.0774
 IR Inten    --     25.3929                 1.1822                18.2194

                      4                      5                      6
                      A                      A                      A
 Frequencies --    122.1987               143.9301               156.0518
 Red. masses --     16.2859                14.5198                14.7949
 Frc consts  --      0.1433                 0.1772                 0.2123
 IR Inten    --     35.8463                26.4076                23.8043

                      7                      8                      9
                      A                      A                      A
 Frequencies --    213.4978               262.4142               266.5818
 Red. masses --     16.2925                 8.6163                 6.7221
 Frc consts  --      0.4375                 0.3496                 0.2815
 IR Inten    --     20.3926                13.4147                 8.5041

                     10                     11                     12
                      A                      A                      A
 Frequencies --    330.2370               370.5616               440.0920
 Red. masses --     13.1474                13.4070                 9.2274
 Frc consts  --      0.8448                 1.0847                 1.0530
 IR Inten    --     12.9783                28.5767                14.5702

                     13                     14                     15
                      A                      A                      A
 Frequencies --    449.9712               487.9094               534.3438
 Red. masses --      4.3663                 4.7747                 5.3081
 Frc consts  --      0.5209                 0.6697                 0.8930
 IR Inten    --     46.7576                68.6204               120.3021

                     16                     17                     18
                      A                      A                      A
 Frequencies --    538.8903               612.2004               648.8512
 Red. masses --      7.9290                15.4843                13.6677
 Frc consts  --      1.3567                 3.4192                 3.3903
 IR Inten    --    112.0464                13.6733                10.2197

                     19                     20                     21
                      A                      A                      A
 Frequencies --    685.9845               726.4103               735.7590
 Red. masses --      8.2103                 4.1968                15.4099
 Frc consts  --      2.2763                 1.3048                 4.9150
 IR Inten    --     92.1328                36.8124                97.7780

                     22                     23                     24
                      A                      A                      A
 Frequencies --    822.2987              1065.6725              1140.6258
 Red. masses --      9.3099                 4.3824                 1.8280
 Frc consts  --      3.7090                 2.9323                 1.4013
 IR Inten    --    434.1074               355.8678               304.2522

                     25                     26                     27
                      A                      A                      A
 Frequencies --   1195.7940              1222.2172              1273.0840
 Red. masses --      9.2523                13.2933                13.4336
 Frc consts  --      7.7950                11.6998                12.8280
 IR Inten    --    271.8483               139.1792               120.7284

                     28                     29                     30
                      A                      A                      A
 Frequencies --   1327.4220              1477.5309              3732.0790
 Red. masses --     10.8779                20.3471                 1.0657
 Frc consts  --     11.2931                26.1713                 8.7455
 IR Inten    --    292.6196               281.7348               211.8467

 - Thermochemistry -
 -------------------
 Temperature   298.150 Kelvin.  Pressure   1.00000 Atm.
 Atom     1 has atomic number  6 and mass  12.00000

 Molecular mass:   199.95666 amu.
 Principal axes and moments of inertia in atomic units:
                           1         2         3
     Eigenvalues --  1324.962422046.248572367.99853
           X            0.97133  -0.21858  -0.09349
           Y            0.23773   0.89618   0.37463
           Z            0.00189  -0.38612   0.92245
 This molecule is an asymmetric top.
 Rotational symmetry number  1.
 Warning -- assumption of classical behavior for rotation
           may cause significant error
 Rotational temperatures (Kelvin)      0.06537     0.04233     0.03658
 Rotational constants (GHZ):           1.36211     0.88198     0.76214
    1 imaginary frequencies ignored.
 Zero-point vibrational energy     126406.9 (Joules/Mol)
                                   30.21198 (Kcal/Mol)
 Warning -- explicit consideration of  16 degrees of freedom as
           vibrations may cause significant error
 Vibrational temperatures:     78.20   139.03   175.82   207.08   224.52
          (Kelvin)            307.18   377.56   383.55   475.14   533.16
                              633.19   647.41   701.99   768.80   775.34
                              880.82   933.55   986.98  1045.14  1058.59
                             1183.10  1533.27  1641.11  1720.48  1758.50
                             1831.68  1909.86  2125.84  5369.63

 Zero-point correction=                           0.048146 (Hartree/Particle)
 Thermal correction to Energy=                    0.058677
 Thermal correction to Enthalpy=                  0.059622
 Thermal correction to Gibbs Free Energy=         0.011248
 Sum of electronic and zero-point Energies=          -1199.700209
 Sum of electronic and thermal Energies=             -1199.689678
 Sum of electronic and thermal Enthalpies=           -1199.688734
 Sum of electronic and thermal Free Energies=        -1199.737108

                     E (Thermal)             CV                S
                      KCal/Mol        Cal/Mol-Kelvin    Cal/Mol-Kelvin
 Total                   36.821             36.711            101.812
 Electronic               0.000              0.000              0.000
 Translational            0.889              2.981             41.783
 Rotational               0.889              2.981             30.241
 Vibrational             35.043             30.749             29.787
 Vibration     1          0.596              1.976              4.652
 Vibration     2          0.603              1.952              3.521
 Vibration     3          0.610              1.931              3.065
 Vibration     4          0.616              1.909              2.751
 Vibration     5          0.620              1.896              2.597
 Vibration     6          0.644              1.820              2.014
 Vibration     7          0.670              1.742              1.646
 Vibration     8          0.672              1.734              1.618
 Vibration     9          0.713              1.615              1.259
 Vibration    10          0.743              1.533              1.077
 Vibration    11          0.800              1.383              0.826
 Vibration    12          0.809              1.361              0.796
 Vibration    13          0.844              1.277              0.689
 Vibration    14          0.889              1.174              0.578
 Vibration    15          0.894              1.164              0.568
 Vibration    16          0.971              1.006              0.429

 Normal termination of Gaussian 16 at Sat May 24 06:33:10 2025.
