 Gaussian 16, Revision C.01,
 Gaussian 16:  ES64L-G16RevC.01  3-Jul-2019

 -----------------------------------------------------------------
 #P M062X/Def2TZVPP Symm(None) scf(xqc) pop(None) freq opt(CalcFC)
 -----------------------------------------------------------------

 ------------------------------
 Gaussian input prepared by ASE
 ------------------------------
 Symbolic Z-matrix:
 Charge =  0 Multiplicity = 1

 SCF Done:  E(RM062X) =  -1199.92816140     A.U. after   13 cycles
 SCF Done:  E(RM062X) =  -1199.93718848     A.U. after   12 cycles
 SCF Done:  E(RM062X) =  -1199.93855889     A.U. after   13 cycles
 SCF Done:  E(RM062X) =  -1199.93906933     A.U. after   12 cycles
 SCF Done:  E(RM062X) =  -1199.93908307     A.U. after   11 cycles
 SCF Done:  E(RM062X) =  -1199.93924720     A.U. after   11 cycles
 SCF Done:  E(RM062X) =  -1199.93938853     A.U. after   11 cycles
 SCF Done:  E(RM062X) =  -1199.94016295     A.U. after   13 cycles
 SCF Done:  E(RM062X) =  -1199.94012851     A.U. after   12 cycles
 SCF Done:  E(RM062X) =  -1199.94043700     A.U. after   11 cycles
 SCF Done:  E(RM062X) =  -1199.94054900     A.U. after   10 cycles
 SCF Done:  E(RM062X) =  -1199.94056416     A.U. after    9 cycles
 SCF Done:  E(RM062X) =  -1199.94056738     A.U. after    8 cycles
 SCF Done:  E(RM062X) =  -1199.94056779     A.U. after    6 cycles
 Optimization completed.
    -- Stationary point found.
 Normal termination of Gaussian 16 at Sat May 24 06:01:36 2025.

 ---------------------------------------------------------------------
 #P Geom=AllCheck Guess=TCheck SCRF=Check GenChk RM062X/def2TZVPP Freq
 ---------------------------------------------------------------------

 Structure from the checkpoint file:  "2003846667223680600001_r12_insertion_R_1_2_5_IRC_F_prod.chk"
 ------------------------------
 Gaussian input prepared by ASE
 ------------------------------
 Charge =  0 Multiplicity = 1

                          Input orientation:
 ---------------------------------------------------------------------
 Center     Atomic      Atomic             Coordinates (Angstroms)
 Number     Number       Type             X           Y           Z
 ---------------------------------------------------------------------
      1          6           0       -0.269553   -0.524521   -0.124770
      2          6           0       -1.425285    0.411279    0.298566
      3          9           0       -1.303518    1.587985   -0.298246
      4          9           0       -1.432167    0.578103    1.606853
      5         16           0        1.420085    0.181332    0.097598
      6          8           0        1.424146    0.920538    1.300778
      7          8           0        2.318846   -0.880825   -0.178766
      8          8           0        1.455047    1.209698   -1.088814
      9          9           0       -0.414683   -0.828652   -1.419786
     10          9           0       -0.334847   -1.637810    0.600316
     11          9           0       -2.573535   -0.140232   -0.071302
     12          1           0        1.782270    0.782462   -1.893739
 ---------------------------------------------------------------------

 SCF Done:  E(RM062X) =  -1199.94056779     A.U. after    1 cycles

 Isotropic polarizability for W=    0.000000       53.52 Bohr**3.
 End of Minotr F.D. properties file   721 does not exist.

                      1                      2                      3
                      A                      A                      A
 Frequencies --     48.0446                71.6838               135.6482
 Red. masses --     13.6062                15.6327                16.3143
 Frc consts  --      0.0185                 0.0473                 0.1769
 IR Inten    --      1.9897                 0.6366                 0.5748

                      4                      5                      6
                      A                      A                      A
 Frequencies --    192.4892               222.6720               241.6391
 Red. masses --      5.1081                17.1249                13.5615
 Frc consts  --      0.1115                 0.5003                 0.4665
 IR Inten    --     16.0185                 1.2403                 8.3087

                      7                      8                      9
                      A                      A                      A
 Frequencies --    286.3821               315.1579               319.9568
 Red. masses --      9.5662                14.2901                 3.8084
 Frc consts  --      0.4623                 0.8363                 0.2297
 IR Inten    --      1.2261                 1.0255                20.6428

                     10                     11                     12
                      A                      A                      A
 Frequencies --    345.8091               378.2526               446.6793
 Red. masses --      2.4082                 8.8279                14.0495
 Frc consts  --      0.1697                 0.7442                 1.6516
 IR Inten    --     42.0329                 6.1465                11.5889

                     13                     14                     15
                      A                      A                      A
 Frequencies --    472.6525               529.3055               542.9852
 Red. masses --      4.6180                14.5336                17.8892
 Frc consts  --      0.6078                 2.3990                 3.1075
 IR Inten    --     28.5323                17.4081                20.2073

                     16                     17                     18
                      A                      A                      A
 Frequencies --    609.7893               630.9840               664.5108
 Red. masses --     17.2597                19.2627                17.4008
 Frc consts  --      3.7813                 4.5186                 4.5271
 IR Inten    --      5.3164               108.4829                48.2280

                     19                     20                     21
                      A                      A                      A
 Frequencies --    781.5342               904.4454              1040.7832
 Red. masses --     17.3632                16.8019                13.5852
 Frc consts  --      6.2485                 8.0979                 8.6703
 IR Inten    --     11.4025               186.7828                96.6767

                     22                     23                     24
                      A                      A                      A
 Frequencies --   1139.8861              1197.0835              1256.6967
 Red. masses --      1.1865                13.9721                13.8055
 Frc consts  --      0.9083                11.7967                12.8458
 IR Inten    --     86.8020               127.1554                43.6999

                     25                     26                     27
                      A                      A                      A
 Frequencies --   1276.0721              1287.6075              1310.8729
 Red. masses --     14.8681                13.5141                13.3525
 Frc consts  --     14.2644                13.2009                13.5187
 IR Inten    --    189.5202               197.0831               367.5774

                     28                     29                     30
                      A                      A                      A
 Frequencies --   1390.5654              1503.6146              3809.8418
 Red. masses --     12.6955                15.4215                 1.0657
 Frc consts  --     14.4639                20.5424                 9.1135
 IR Inten    --     82.0983               278.9575               189.8323

 - Thermochemistry -
 -------------------
 Temperature   298.150 Kelvin.  Pressure   1.00000 Atm.
 Atom     1 has atomic number  6 and mass  12.00000

 Molecular mass:   199.95666 amu.
 Principal axes and moments of inertia in atomic units:
                           1         2         3
     Eigenvalues --  1131.748372108.873212245.77556
           X            0.99376   0.07396   0.08350
           Y           -0.04106   0.93857  -0.34264
           Z           -0.10371   0.33707   0.93575
 This molecule is an asymmetric top.
 Rotational symmetry number  1.
 Warning -- assumption of classical behavior for rotation
           may cause significant error
 Rotational temperatures (Kelvin)      0.07653     0.04107     0.03857
 Rotational constants (GHZ):           1.59465     0.85578     0.80362
 Zero-point vibrational energy     139685.8 (Joules/Mol)
                                   33.38571 (Kcal/Mol)
 Warning -- explicit consideration of  16 degrees of freedom as
           vibrations may cause significant error
 Vibrational temperatures:     69.13   103.14   195.17   276.95   320.38
          (Kelvin)            347.66   412.04   453.44   460.35   497.54
                              544.22   642.67   680.04   761.55   781.23
                              877.35   907.85   956.08  1124.45  1301.30
                             1497.45  1640.04  1722.34  1808.11  1835.98
                             1852.58  1886.05  2000.71  2163.37  5481.51

 Zero-point correction=                           0.053204 (Hartree/Particle)
 Thermal correction to Energy=                    0.063466
 Thermal correction to Enthalpy=                  0.064410
 Thermal correction to Gibbs Free Energy=         0.016628
 Sum of electronic and zero-point Energies=          -1199.887364
 Sum of electronic and thermal Energies=             -1199.877102
 Sum of electronic and thermal Enthalpies=           -1199.876158
 Sum of electronic and thermal Free Energies=        -1199.923940

                     E (Thermal)             CV                S
                      KCal/Mol        Cal/Mol-Kelvin    Cal/Mol-Kelvin
 Total                   39.825             36.009            100.566
 Electronic               0.000              0.000              0.000
 Translational            0.889              2.981             41.783
 Rotational               0.889              2.981             30.062
 Vibrational             38.048             30.048             28.720
 Vibration     1          0.595              1.978              4.896
 Vibration     2          0.598              1.968              4.107
 Vibration     3          0.613              1.918              2.864
 Vibration     4          0.634              1.850              2.204
 Vibration     5          0.648              1.807              1.937
 Vibration     6          0.658              1.777              1.791
 Vibration     7          0.684              1.699              1.495
 Vibration     8          0.703              1.645              1.335
 Vibration     9          0.706              1.635              1.310
 Vibration    10          0.724              1.584              1.185
 Vibration    11          0.749              1.516              1.046
 Vibration    12          0.806              1.368              0.806
 Vibration    13          0.830              1.311              0.730
 Vibration    14          0.884              1.185              0.589
 Vibration    15          0.898              1.155              0.559
 Vibration    16          0.969              1.011              0.433

 Optimization completed.
    -- Stationary point found.
 Normal termination of Gaussian 16 at Sat May 24 06:06:56 2025.
