 Gaussian 16, Revision C.01,
 Gaussian 16:  ES64L-G16RevC.01  3-Jul-2019

 ----------------------------------------------------------------------
 #P mp2/6-31G Symm(None) scf(xqc) pop(None) guess(Mix,Always) freq opt(
 CalcFC)
 ----------------------------------------------------------------------

 ------------------------------
 Gaussian input prepared by ASE
 ------------------------------
 Symbolic Z-matrix:
 Charge =  0 Multiplicity = 1

 SCF Done:  E(RHF) =  -1194.96252082     A.U. after   19 cycles
 E2 =    -0.1291543974D+01 EUMP2 =    -0.11962540647975D+04
 E2 =    -0.1291543974D+01 EUMP2 =    -0.11962540647975D+04
 SCF Done:  E(RHF) =  -1194.96255204     A.U. after   19 cycles
 E2 =    -0.1291696098D+01 EUMP2 =    -0.11962542481430D+04
 SCF Done:  E(RHF) =  -1194.96351690     A.U. after   19 cycles
 E2 =    -0.1291313850D+01 EUMP2 =    -0.11962548307478D+04
 SCF Done:  E(RHF) =  -1194.96582732     A.U. after   19 cycles
 E2 =    -0.1289841402D+01 EUMP2 =    -0.11962556687234D+04
 SCF Done:  E(RHF) =  -1194.96679516     A.U. after   18 cycles
 E2 =    -0.1288757306D+01 EUMP2 =    -0.11962555524691D+04
 SCF Done:  E(RHF) =  -1194.96637591     A.U. after   18 cycles
 E2 =    -0.1289476031D+01 EUMP2 =    -0.11962558519454D+04
 SCF Done:  E(RHF) =  -1194.96640499     A.U. after   18 cycles
 E2 =    -0.1289460303D+01 EUMP2 =    -0.11962558652971D+04
 SCF Done:  E(RHF) =  -1194.96642201     A.U. after   18 cycles
 E2 =    -0.1289441900D+01 EUMP2 =    -0.11962558639127D+04
 SCF Done:  E(RHF) =  -1194.96645679     A.U. after   18 cycles
 E2 =    -0.1289411002D+01 EUMP2 =    -0.11962558677954D+04
 SCF Done:  E(RHF) =  -1194.96643970     A.U. after   18 cycles
 E2 =    -0.1289430137D+01 EUMP2 =    -0.11962558698367D+04
 SCF Done:  E(RHF) =  -1194.96644427     A.U. after   18 cycles
 E2 =    -0.1289425606D+01 EUMP2 =    -0.11962558698728D+04
 Optimization completed.
    -- Stationary point found.
 Normal termination of Gaussian 16 at Sat May 24 04:31:03 2025.

 -------------------------------------------------------------------
 #P Geom=AllCheck Guess=TCheck SCRF=Check GenChk RMP2(FC)/6-31G Freq
 -------------------------------------------------------------------

 Structure from the checkpoint file:  "2003846667223680600001_R_Addition_MultipleBond_5_2_3_IRC_F_prod.chk"
 ------------------------------
 Gaussian input prepared by ASE
 ------------------------------
 Charge =  0 Multiplicity = 1

                          Input orientation:
 ---------------------------------------------------------------------
 Center     Atomic      Atomic             Coordinates (Angstroms)
 Number     Number       Type             X           Y           Z
 ---------------------------------------------------------------------
      1          6           0       -1.224272   -0.963281    0.018526
      2          6           0       -0.540118    0.399966   -0.172681
      3          9           0       -0.877278    0.937234   -1.405030
      4          9           0       -0.877711    1.256238    0.868356
      5         16           0        1.457646    0.266401   -0.102019
      6          8           0        1.962785    0.266583    1.411913
      7          8           0        1.935623   -0.840541   -1.138779
      8          8           0        1.625700    1.946745   -0.780567
      9          9           0       -1.041092   -1.755352   -1.104798
     10          9           0       -0.664417   -1.604259    1.123298
     11          9           0       -2.586428   -0.786973    0.237290
     12          1           0        2.448322    2.348812   -0.391514
 ---------------------------------------------------------------------

 SCF Done:  E(RHF) =  -1194.96644427     A.U. after    1 cycles
 E2 =    -0.1289425602D+01 EUMP2 =    -0.11962558698692D+04
 E2 =    -0.1289425602D+01 EUMP2 =    -0.11962558698692D+04

                      1                      2                      3
                      A                      A                      A
 Frequencies --     33.0593                57.5577               117.4222
 Red. masses --     12.7018                14.0722                13.2246
 Frc consts  --      0.0082                 0.0275                 0.1074
 IR Inten    --      1.6884                 0.8653                 0.7417

                      4                      5                      6
                      A                      A                      A
 Frequencies --    141.7954               152.7781               206.6956
 Red. masses --      6.2640                 2.5290                 3.4815
 Frc consts  --      0.0742                 0.0348                 0.0876
 IR Inten    --     23.4196                50.4554                40.2621

                      7                      8                      9
                      A                      A                      A
 Frequencies --    211.2969               219.6564               258.9034
 Red. masses --     12.7729                 7.1008                11.7307
 Frc consts  --      0.3360                 0.2019                 0.4633
 IR Inten    --     12.0573                 1.8648                14.8588

                     10                     11                     12
                      A                      A                      A
 Frequencies --    291.5734               339.7451               345.8508
 Red. masses --      7.8955                11.9591                18.0538
 Frc consts  --      0.3955                 0.8133                 1.2723
 IR Inten    --     12.7991                27.8533                 1.6231

                     13                     14                     15
                      A                      A                      A
 Frequencies --    366.3782               415.0089               454.8171
 Red. masses --      9.2489                17.3003                16.1305
 Frc consts  --      0.7315                 1.7556                 1.9659
 IR Inten    --     23.4999                 1.5275               105.5769

                     16                     17                     18
                      A                      A                      A
 Frequencies --    493.4603               559.1700               576.2905
 Red. masses --     16.5927                17.7327                16.1059
 Frc consts  --      2.3805                 3.2667                 3.1515
 IR Inten    --      9.8225                 3.1283                87.2455

                     19                     20                     21
                      A                      A                      A
 Frequencies --    615.7634               689.2015               903.0682
 Red. masses --     18.3682                17.1410                13.5812
 Frc consts  --      4.1034                 4.7971                 6.5257
 IR Inten    --    149.9477                 4.7133                94.4305

                     22                     23                     24
                      A                      A                      A
 Frequencies --    973.5515              1076.1569              1099.6086
 Red. masses --     12.2369                 2.3068                 5.5847
 Frc consts  --      6.8334                 1.5740                 3.9786
 IR Inten    --     61.7145               224.6904                33.2675

                     25                     26                     27
                      A                      A                      A
 Frequencies --   1146.5196              1199.8229              1203.5145
 Red. masses --      2.8047                12.2905                12.9507
 Frc consts  --      2.1722                10.4245                11.0521
 IR Inten    --     85.4525               148.8392                94.4841

                     28                     29                     30
                      A                      A                      A
 Frequencies --   1219.9106              1313.5179              3498.2553
 Red. masses --     13.0592                11.5189                 1.0661
 Frc consts  --     11.4505                11.7093                 7.6868
 IR Inten    --    249.9195               133.3344                96.3733

 - Thermochemistry -
 -------------------
 Temperature   298.150 Kelvin.  Pressure   1.00000 Atm.
 Atom     1 has atomic number  6 and mass  12.00000

 Molecular mass:   199.95666 amu.
 Principal axes and moments of inertia in atomic units:
                           1         2         3
     Eigenvalues --  1289.753432371.339432518.90733
           X            0.89642  -0.44248  -0.02530
           Y            0.44098   0.88474   0.15091
           Z           -0.04439  -0.14644   0.98822
 This molecule is an asymmetric top.
 Rotational symmetry number  1.
 Warning -- assumption of classical behavior for rotation
           may cause significant error
 Rotational temperatures (Kelvin)      0.06716     0.03653     0.03439
 Rotational constants (GHZ):           1.39929     0.76106     0.71648
 Zero-point vibrational energy     120705.3 (Joules/Mol)
                                   28.84926 (Kcal/Mol)
 Warning -- explicit consideration of  19 degrees of freedom as
           vibrations may cause significant error
 Vibrational temperatures:     47.57    82.81   168.94   204.01   219.81
          (Kelvin)            297.39   304.01   316.04   372.50   419.51
                              488.82   497.60   527.14   597.11   654.38
                              709.98   804.52   829.15   885.95   991.61
                             1299.31  1400.72  1548.35  1582.09  1649.59
                             1726.28  1731.59  1755.18  1889.86  5033.21

 Zero-point correction=                           0.045974 (Hartree/Particle)
 Thermal correction to Energy=                    0.057742
 Thermal correction to Enthalpy=                  0.058687
 Thermal correction to Gibbs Free Energy=         0.007215
 Sum of electronic and zero-point Energies=          -1196.209896
 Sum of electronic and thermal Energies=             -1196.198128
 Sum of electronic and thermal Enthalpies=           -1196.197183
 Sum of electronic and thermal Free Energies=        -1196.248655

                     E (Thermal)             CV                S
                      KCal/Mol        Cal/Mol-Kelvin    Cal/Mol-Kelvin
 Total                   36.234             39.860            108.331
 Electronic               0.000              0.000              0.000
 Translational            0.889              2.981             41.783
 Rotational               0.889              2.981             30.422
 Vibrational             34.456             33.898             36.126
 Vibration     1          0.594              1.983              5.637
 Vibration     2          0.596              1.974              4.539
 Vibration     3          0.608              1.935              3.142
 Vibration     4          0.615              1.911              2.780
 Vibration     5          0.619              1.900              2.637
 Vibration     6          0.641              1.830              2.073
 Vibration     7          0.643              1.824              2.032
 Vibration     8          0.647              1.811              1.962
 Vibration     9          0.668              1.748              1.669
 Vibration    10          0.687              1.689              1.465
 Vibration    11          0.720              1.596              1.213
 Vibration    12          0.724              1.584              1.185
 Vibration    13          0.739              1.541              1.095
 Vibration    14          0.778              1.438              0.909
 Vibration    15          0.813              1.350              0.781
 Vibration    16          0.849              1.265              0.675
 Vibration    17          0.915              1.120              0.525
 Vibration    18          0.933              1.083              0.492
 Vibration    19          0.975              0.999              0.423

 Optimization completed.
    -- Stationary point found.
 Normal termination of Gaussian 16 at Sat May 24 04:31:36 2025.
