 Gaussian 16, Revision C.01,
 Gaussian 16:  ES64L-G16RevC.01  3-Jul-2019

 -----------------------------------------------------------------
 #P M062X/Def2TZVPP Symm(None) scf(xqc) pop(None) freq opt(CalcFC)
 -----------------------------------------------------------------

 ------------------------------
 Gaussian input prepared by ASE
 ------------------------------
 Symbolic Z-matrix:
 Charge =  0 Multiplicity = 1

 SCF Done:  E(RM062X) =  -1199.93650069     A.U. after   13 cycles
 SCF Done:  E(RM062X) =  -1199.93697172     A.U. after   12 cycles
 SCF Done:  E(RM062X) =  -1199.93842989     A.U. after   12 cycles
 SCF Done:  E(RM062X) =  -1199.94032626     A.U. after   12 cycles
 SCF Done:  E(RM062X) =  -1199.94032888     A.U. after   12 cycles
 SCF Done:  E(RM062X) =  -1199.94061497     A.U. after   11 cycles
 SCF Done:  E(RM062X) =  -1199.94064687     A.U. after   10 cycles
 SCF Done:  E(RM062X) =  -1199.94067509     A.U. after   10 cycles
 SCF Done:  E(RM062X) =  -1199.94068321     A.U. after   10 cycles
 SCF Done:  E(RM062X) =  -1199.94068358     A.U. after    8 cycles
 Optimization completed.
    -- Stationary point found.
 Normal termination of Gaussian 16 at Sat May 24 04:19:35 2025.

 ---------------------------------------------------------------------
 #P Geom=AllCheck Guess=TCheck SCRF=Check GenChk RM062X/def2TZVPP Freq
 ---------------------------------------------------------------------

 Structure from the checkpoint file:  "2003846667223680600001_r12_insertion_R_8_5_2_IRC_R_prod.chk"
 ------------------------------
 Gaussian input prepared by ASE
 ------------------------------
 Charge =  0 Multiplicity = 1

                          Input orientation:
 ---------------------------------------------------------------------
 Center     Atomic      Atomic             Coordinates (Angstroms)
 Number     Number       Type             X           Y           Z
 ---------------------------------------------------------------------
      1          6           0       -1.128756   -0.949481    0.027680
      2          6           0       -0.451255    0.434231   -0.098252
      3          9           0       -0.708408    0.924228   -1.317373
      4          9           0       -0.961162    1.249902    0.820316
      5         16           0        1.379390    0.387551    0.111408
      6          8           0        1.653008    0.236184    1.487307
      7          8           0        1.889932   -0.473813   -0.894188
      8          8           0        1.695038    1.879491   -0.269382
      9          9           0       -0.763317   -1.736919   -0.968123
     10          9           0       -0.800625   -1.513635    1.178491
     11          9           0       -2.443037   -0.783010   -0.014923
     12          1           0        1.834828    1.959961   -1.224120
 ---------------------------------------------------------------------

 SCF Done:  E(RM062X) =  -1199.94068358     A.U. after    1 cycles

 Isotropic polarizability for W=    0.000000       53.48 Bohr**3.
 End of Minotr F.D. properties file   721 does not exist.

                      1                      2                      3
                      A                      A                      A
 Frequencies --     26.9212                70.0631               128.3284
 Red. masses --     14.6568                13.8614                14.6952
 Frc consts  --      0.0063                 0.0401                 0.1426
 IR Inten    --      1.2622                 0.9714                 1.3534

                      4                      5                      6
                      A                      A                      A
 Frequencies --    193.8939               221.0733               237.9717
 Red. masses --      9.6727                16.8958                 7.9850
 Frc consts  --      0.2143                 0.4865                 0.2664
 IR Inten    --      7.4424                 1.5765                11.4593

                      7                      8                      9
                      A                      A                      A
 Frequencies --    283.5777               318.6682               323.4915
 Red. masses --     13.8831                 5.6809                17.6215
 Frc consts  --      0.6578                 0.3399                 1.0865
 IR Inten    --      0.3998                13.6189                 0.0479

                     10                     11                     12
                      A                      A                      A
 Frequencies --    368.1543               376.3412               446.5460
 Red. masses --      1.8285                12.7820                 4.6080
 Frc consts  --      0.1460                 1.0666                 0.5414
 IR Inten    --     54.0708                 2.7690                23.3902

                     13                     14                     15
                      A                      A                      A
 Frequencies --    499.8266               507.5392               543.9834
 Red. masses --      7.4455                14.4468                17.7434
 Frc consts  --      1.0959                 2.1926                 3.0936
 IR Inten    --      7.2285                33.4745                25.2307

                     16                     17                     18
                      A                      A                      A
 Frequencies --    609.0421               631.2550               664.0937
 Red. masses --     17.1497                19.4025                17.6406
 Frc consts  --      3.7480                 4.5553                 4.5838
 IR Inten    --      3.6919               110.4826                47.6879

                     19                     20                     21
                      A                      A                      A
 Frequencies --    781.7954               897.7651              1040.8261
 Red. masses --     17.3547                16.5620                14.0241
 Frc consts  --      6.2496                 7.8648                 8.9512
 IR Inten    --     19.6406               228.0467                28.3962

                     22                     23                     24
                      A                      A                      A
 Frequencies --   1140.9341              1200.8222              1257.4633
 Red. masses --      1.1812                13.5810                15.7660
 Frc consts  --      0.9060                11.5382                14.6880
 IR Inten    --     93.9454               244.3955                20.9289

                     25                     26                     27
                      A                      A                      A
 Frequencies --   1263.8673              1302.4404              1305.9477
 Red. masses --     13.4328                13.8997                13.2009
 Frc consts  --     12.6421                13.8922                13.2650
 IR Inten    --     85.7880               323.9107               235.1137

                     28                     29                     30
                      A                      A                      A
 Frequencies --   1389.6249              1505.2561              3808.2550
 Red. masses --     12.6906                15.5003                 1.0657
 Frc consts  --     14.4387                20.6924                 9.1058
 IR Inten    --     90.9012               296.2430               187.9814

 - Thermochemistry -
 -------------------
 Temperature   298.150 Kelvin.  Pressure   1.00000 Atm.
 Atom     1 has atomic number  6 and mass  12.00000

 Molecular mass:   199.95666 amu.
 Principal axes and moments of inertia in atomic units:
                           1         2         3
     Eigenvalues --  1118.704992148.577292267.00684
           X            0.87259  -0.47694  -0.10547
           Y            0.48821   0.85843   0.15729
           Z            0.01552  -0.18874   0.98190
 This molecule is an asymmetric top.
 Rotational symmetry number  1.
 Warning -- assumption of classical behavior for rotation
           may cause significant error
 Rotational temperatures (Kelvin)      0.07742     0.04031     0.03821
 Rotational constants (GHZ):           1.61324     0.83997     0.79609
 Zero-point vibrational energy     139638.7 (Joules/Mol)
                                   33.37445 (Kcal/Mol)
 Warning -- explicit consideration of  16 degrees of freedom as
           vibrations may cause significant error
 Vibrational temperatures:     38.73   100.81   184.64   278.97   318.08
          (Kelvin)            342.39   408.01   458.49   465.43   529.69
                              541.47   642.48   719.14   730.24   782.67
                              876.28   908.24   955.48  1124.83  1291.68
                             1497.52  1641.55  1727.72  1809.21  1818.42
                             1873.92  1878.97  1999.36  2165.73  5479.23

 Zero-point correction=                           0.053186 (Hartree/Particle)
 Thermal correction to Energy=                    0.063483
 Thermal correction to Enthalpy=                  0.064427
 Thermal correction to Gibbs Free Energy=         0.016068
 Sum of electronic and zero-point Energies=          -1199.887498
 Sum of electronic and thermal Energies=             -1199.877201
 Sum of electronic and thermal Enthalpies=           -1199.876256
 Sum of electronic and thermal Free Energies=        -1199.924616

                     E (Thermal)             CV                S
                      KCal/Mol        Cal/Mol-Kelvin    Cal/Mol-Kelvin
 Total                   39.836             35.973            101.781
 Electronic               0.000              0.000              0.000
 Translational            0.889              2.981             41.783
 Rotational               0.889              2.981             30.078
 Vibrational             38.059             30.012             29.919
 Vibration     1          0.593              1.984              6.044
 Vibration     2          0.598              1.968              4.152
 Vibration     3          0.611              1.925              2.971
 Vibration     4          0.635              1.848              2.190
 Vibration     5          0.648              1.809              1.950
 Vibration     6          0.656              1.782              1.818
 Vibration     7          0.682              1.704              1.512
 Vibration     8          0.705              1.638              1.317
 Vibration     9          0.708              1.628              1.292
 Vibration    10          0.741              1.538              1.087
 Vibration    11          0.747              1.521              1.054
 Vibration    12          0.806              1.369              0.806
 Vibration    13          0.855              1.250              0.659
 Vibration    14          0.863              1.233              0.640
 Vibration    15          0.899              1.153              0.557
 Vibration    16          0.968              1.013              0.434

 Optimization completed.
    -- Stationary point found.
 Normal termination of Gaussian 16 at Sat May 24 04:24:21 2025.
