 Gaussian 16, Revision C.01,
 Gaussian 16:  ES64L-G16RevC.01  3-Jul-2019

 ----------------------------------------------------------------------
 #P mp2/6-31G Symm(None) scf(xqc) pop(None) guess(Mix,Always) opt(NoFre
 eze,TS,CalcAll,NoEigentest,MaxCycle=999)
 ----------------------------------------------------------------------

 ------------------------------
 Gaussian input prepared by ASE
 ------------------------------
 Symbolic Z-matrix:
 Charge =  0 Multiplicity = 1

 SCF Done:  E(RHF) =  -1194.81019535     A.U. after   16 cycles
 E2 =    -0.1253386386D+01 EUMP2 =    -0.11960635817377D+04
 E2 =    -0.1253386386D+01 EUMP2 =    -0.11960635817377D+04
 SCF Done:  E(RHF) =  -1194.83491789     A.U. after   17 cycles
 E2 =    -0.1271588985D+01 EUMP2 =    -0.11961065068736D+04
 E2 =    -0.1271588985D+01 EUMP2 =    -0.11961065068736D+04
 SCF Done:  E(RHF) =  -1194.88294188     A.U. after   17 cycles
 E2 =    -0.1285164448D+01 EUMP2 =    -0.11961681063302D+04
 E2 =    -0.1285164448D+01 EUMP2 =    -0.11961681063302D+04
 SCF Done:  E(RHF) =  -1194.90497467     A.U. after   18 cycles
 E2 =    -0.1291468709D+01 EUMP2 =    -0.11961964433776D+04
 E2 =    -0.1291468709D+01 EUMP2 =    -0.11961964433776D+04
 SCF Done:  E(RHF) =  -1194.90727341     A.U. after   19 cycles
 E2 =    -0.1293951584D+01 EUMP2 =    -0.11962012249901D+04
 E2 =    -0.1293951584D+01 EUMP2 =    -0.11962012249901D+04
 SCF Done:  E(RHF) =  -1194.90678102     A.U. after   19 cycles
 E2 =    -0.1294573327D+01 EUMP2 =    -0.11962013543464D+04
 E2 =    -0.1294573327D+01 EUMP2 =    -0.11962013543464D+04
 SCF Done:  E(RHF) =  -1194.90676335     A.U. after   19 cycles
 E2 =    -0.1294591125D+01 EUMP2 =    -0.11962013544704D+04
 E2 =    -0.1294591125D+01 EUMP2 =    -0.11962013544704D+04
 Optimization completed.
    -- Stationary point found.

                          Input orientation:
 ---------------------------------------------------------------------
 Center     Atomic      Atomic             Coordinates (Angstroms)
 Number     Number       Type             X           Y           Z
 ---------------------------------------------------------------------
      1          6           0       -0.720703   -1.362324    0.302836
      2          6           0       -0.117380    0.042758    0.147009
      3          9           0       -0.394623    0.562304   -1.106057
      4          9           0       -0.550805    0.894165    1.153570
      5         16           0        1.882342    0.045095    0.268665
      6          8           0        2.355782   -0.779250    1.537656
      7          8           0        2.528015   -0.241668   -1.299783
      8          8           0        2.329826    1.684488    0.004566
      9          9           0       -0.015067   -2.244057   -0.514147
     10          9           0       -0.619696   -1.781117    1.619880
     11          9           0       -2.056007   -1.350849   -0.079836
     12          1           0        2.759124    1.075687   -1.125306
 ---------------------------------------------------------------------

 ******    1 imaginary frequencies (negative Signs) ******

                      1                      2                      3
                      A                      A                      A
 Frequencies --  -1689.5734                38.3263                51.8534
 Red. masses --      1.0936                13.9851                17.6623
 Frc consts  --      1.8393                 0.0121                 0.0280
 IR Inten    --    352.6985                 0.0969                 0.1694

                      4                      5                      6
                      A                      A                      A
 Frequencies --    106.3597               143.8850               174.3360
 Red. masses --     15.9738                15.3377                14.3620
 Frc consts  --      0.1065                 0.1871                 0.2572
 IR Inten    --      2.4054                 2.8982                 3.1231

                      7                      8                      9
                      A                      A                      A
 Frequencies --    210.0225               216.7171               257.4664
 Red. masses --     18.5112                14.8338                17.5519
 Frc consts  --      0.4811                 0.4105                 0.6855
 IR Inten    --      2.5378                 6.9700                 2.1418

                     10                     11                     12
                      A                      A                      A
 Frequencies --    292.6163               341.9538               351.1708
 Red. masses --     18.1543                18.5034                18.3986
 Frc consts  --      0.9159                 1.2748                 1.3368
 IR Inten    --      0.4787                 4.4770                10.7436

                     13                     14                     15
                      A                      A                      A
 Frequencies --    408.1159               429.3048               487.5746
 Red. masses --     17.7399                13.9758                17.4535
 Frc consts  --      1.7409                 1.5176                 2.4446
 IR Inten    --      4.3266                58.5173                 4.0110

                     16                     17                     18
                      A                      A                      A
 Frequencies --    556.5087               580.6490               590.6443
 Red. masses --     17.7386                17.1638                17.4290
 Frc consts  --      3.2368                 3.4095                 3.5824
 IR Inten    --      3.7200                70.3153                33.9466

                     19                     20                     21
                      A                      A                      A
 Frequencies --    688.1023               807.6789               892.0126
 Red. masses --     16.9188                16.2724                10.9443
 Frc consts  --      4.7198                 6.2543                 5.1307
 IR Inten    --     21.7750                92.6613               145.5626

                     22                     23                     24
                      A                      A                      A
 Frequencies --    907.6377               996.3230              1077.7032
 Red. masses --     10.7842                 1.1660                12.2189
 Frc consts  --      5.2344                 0.6819                 8.3615
 IR Inten    --    104.9969                58.1343               121.1738

                     25                     26                     27
                      A                      A                      A
 Frequencies --   1090.5979              1202.1048              1204.8451
 Red. masses --     12.2990                13.0250                12.6733
 Frc consts  --      8.6188                11.0895                10.8393
 IR Inten    --    190.9119               123.7934               110.9243

                     28                     29                     30
                      A                      A                      A
 Frequencies --   1221.8957              1313.1747              2005.0197
 Red. masses --     13.1454                12.2467                 1.0293
 Frc consts  --     11.5636                12.4427                 2.4379
 IR Inten    --    208.4949               158.0942               125.2014

 - Thermochemistry -
 -------------------
 Temperature   298.150 Kelvin.  Pressure   1.00000 Atm.
 Atom     1 has atomic number  6 and mass  12.00000

 Molecular mass:   199.95666 amu.
 Principal axes and moments of inertia in atomic units:
                           1         2         3
     Eigenvalues --  1252.858162449.334292584.85792
           X            0.87841  -0.46000  -0.12963
           Y            0.46925   0.77873   0.41640
           Z           -0.09060  -0.42660   0.89989
 This molecule is an asymmetric top.
 Rotational symmetry number  1.
 Warning -- assumption of classical behavior for rotation
           may cause significant error
 Rotational temperatures (Kelvin)      0.06913     0.03536     0.03351
 Rotational constants (GHZ):           1.44050     0.73683     0.69820
    1 imaginary frequencies ignored.
 Zero-point vibrational energy     111519.5 (Joules/Mol)
                                   26.65379 (Kcal/Mol)
 Warning -- explicit consideration of  17 degrees of freedom as
           vibrations may cause significant error
 Vibrational temperatures:     55.14    74.61   153.03   207.02   250.83
          (Kelvin)            302.18   311.81   370.44   421.01   492.00
                              505.26   587.19   617.67   701.51   800.69
                              835.42   849.81   990.03  1162.07  1283.41
                             1305.89  1433.49  1550.57  1569.13  1729.56
                             1733.50  1758.04  1889.37  2884.78

 Zero-point correction=                           0.042476 (Hartree/Particle)
 Thermal correction to Energy=                    0.053484
 Thermal correction to Enthalpy=                  0.054428
 Thermal correction to Gibbs Free Energy=         0.004316
 Sum of electronic and zero-point Energies=          -1196.158879
 Sum of electronic and thermal Energies=             -1196.147871
 Sum of electronic and thermal Enthalpies=           -1196.146927
 Sum of electronic and thermal Free Energies=        -1196.197039

                     E (Thermal)             CV                S
                      KCal/Mol        Cal/Mol-Kelvin    Cal/Mol-Kelvin
 Total                   33.562             37.487            105.470
 Electronic               0.000              0.000              0.000
 Translational            0.889              2.981             41.783
 Rotational               0.889              2.981             30.451
 Vibrational             31.784             31.526             33.236
 Vibration     1          0.594              1.982              5.344
 Vibration     2          0.596              1.977              4.745
 Vibration     3          0.605              1.944              3.334
 Vibration     4          0.616              1.909              2.752
 Vibration     5          0.627              1.874              2.388
 Vibration     6          0.642              1.825              2.043
 Vibration     7          0.646              1.816              1.986
 Vibration     8          0.667              1.750              1.679
 Vibration     9          0.688              1.687              1.459
 Vibration    10          0.721              1.592              1.203
 Vibration    11          0.728              1.573              1.161
 Vibration    12          0.773              1.453              0.933
 Vibration    13          0.791              1.406              0.861
 Vibration    14          0.844              1.278              0.690
 Vibration    15          0.912              1.125              0.531
 Vibration    16          0.937              1.073              0.484
 Vibration    17          0.948              1.052              0.466

 Normal termination of Gaussian 16 at Sat May 24 03:03:50 2025.
