 Gaussian 16, Revision C.01,
 Gaussian 16:  ES64L-G16RevC.01  3-Jul-2019

 -----------------------------------------------------------------
 #P M062X/Def2TZVPP Symm(None) scf(xqc) pop(None) freq opt(CalcFC)
 -----------------------------------------------------------------

 ------------------------------
 Gaussian input prepared by ASE
 ------------------------------
 Symbolic Z-matrix:
 Charge =  0 Multiplicity = 1

 SCF Done:  E(RM062X) =  -1199.88707101     A.U. after   15 cycles
 SCF Done:  E(RM062X) =  -1199.91221118     A.U. after   14 cycles
 SCF Done:  E(RM062X) =  -1199.93485747     A.U. after   14 cycles
 SCF Done:  E(RM062X) =  -1199.93675489     A.U. after   12 cycles
 SCF Done:  E(RM062X) =  -1199.93808785     A.U. after   12 cycles
 SCF Done:  E(RM062X) =  -1199.93970957     A.U. after   12 cycles
 SCF Done:  E(RM062X) =  -1199.94028434     A.U. after   12 cycles
 SCF Done:  E(RM062X) =  -1199.94043619     A.U. after   12 cycles
 SCF Done:  E(RM062X) =  -1199.94053657     A.U. after   10 cycles
 SCF Done:  E(RM062X) =  -1199.94053972     A.U. after   10 cycles
 SCF Done:  E(RM062X) =  -1199.94055379     A.U. after   10 cycles
 SCF Done:  E(RM062X) =  -1199.94055594     A.U. after    8 cycles
 SCF Done:  E(RM062X) =  -1199.94055641     A.U. after    7 cycles
 Optimization completed.
    -- Stationary point found.
 Normal termination of Gaussian 16 at Sat May 24 06:05:04 2025.

 ---------------------------------------------------------------------
 #P Geom=AllCheck Guess=TCheck SCRF=Check GenChk RM062X/def2TZVPP Freq
 ---------------------------------------------------------------------

 Structure from the checkpoint file:  "2003846667223680600001_r12_insertion_R_6_5_7_IRC_F_prod.chk"
 ------------------------------
 Gaussian input prepared by ASE
 ------------------------------
 Charge =  0 Multiplicity = 1

                          Input orientation:
 ---------------------------------------------------------------------
 Center     Atomic      Atomic             Coordinates (Angstroms)
 Number     Number       Type             X           Y           Z
 ---------------------------------------------------------------------
      1          6           0       -1.156690   -0.636238    0.604721
      2          6           0       -0.403715    0.302347   -0.366198
      3          9           0       -0.786735    0.025637   -1.609577
      4          9           0       -0.722587    1.568924   -0.074888
      5         16           0        1.434429    0.161789   -0.309411
      6          8           0        1.757786   -1.202759   -0.142677
      7          8           0        1.913152    0.961130   -1.379041
      8          8           0        1.731263    0.887109    1.051615
      9          9           0       -1.028139   -1.893598    0.227803
     10          9           0       -0.689319   -0.492034    1.836177
     11          9           0       -2.443029   -0.312609    0.593829
     12          1           0        1.848264    1.837294    0.906790
 ---------------------------------------------------------------------

 SCF Done:  E(RM062X) =  -1199.94055641     A.U. after    1 cycles

 Isotropic polarizability for W=    0.000000       53.50 Bohr**3.
 End of Minotr F.D. properties file   721 does not exist.

                      1                      2                      3
                      A                      A                      A
 Frequencies --     45.0461                70.5330               134.5432
 Red. masses --     13.2249                16.1638                16.3580
 Frc consts  --      0.0158                 0.0474                 0.1745
 IR Inten    --      2.1614                 0.4798                 0.5311

                      4                      5                      6
                      A                      A                      A
 Frequencies --    193.6610               223.3845               241.6262
 Red. masses --      5.7609                17.2823                14.8978
 Frc consts  --      0.1273                 0.5081                 0.5125
 IR Inten    --     13.9710                 1.2642                 6.8039

                      7                      8                      9
                      A                      A                      A
 Frequencies --    286.9326               315.5137               322.8983
 Red. masses --     10.9245                17.0387                 5.6055
 Frc consts  --      0.5299                 0.9994                 0.3443
 IR Inten    --      0.8168                 0.1165                11.1876

                     10                     11                     12
                      A                      A                      A
 Frequencies --    354.6962               379.4692               446.5796
 Red. masses --      2.0665                 6.0507                13.8598
 Frc consts  --      0.1532                 0.5133                 1.6286
 IR Inten    --     47.8331                11.6515                11.6682

                     13                     14                     15
                      A                      A                      A
 Frequencies --    473.0877               528.7602               542.8155
 Red. masses --      4.2898                14.5571                17.8955
 Frc consts  --      0.5657                 2.3980                 3.1067
 IR Inten    --     31.0377                17.3255                20.7369

                     16                     17                     18
                      A                      A                      A
 Frequencies --    609.7321               630.2358               664.1218
 Red. masses --     17.2663                19.3008                17.3673
 Frc consts  --      3.7821                 4.5168                 4.5131
 IR Inten    --      5.3072               109.6222                46.9482

                     19                     20                     21
                      A                      A                      A
 Frequencies --    781.4442               903.3615              1040.6274
 Red. masses --     17.3559                16.8207                13.5689
 Frc consts  --      6.2444                 8.0875                 8.6574
 IR Inten    --     11.5185               186.8314                96.9746

                     22                     23                     24
                      A                      A                      A
 Frequencies --   1139.0636              1196.2616              1255.7050
 Red. masses --      1.1872                13.9976                13.9434
 Frc consts  --      0.9075                11.8021                12.9537
 IR Inten    --     86.2298               127.5418                41.8069

                     25                     26                     27
                      A                      A                      A
 Frequencies --   1274.9387              1287.4265              1310.6240
 Red. masses --     14.8375                13.3990                13.3299
 Frc consts  --     14.2099                13.0849                13.4907
 IR Inten    --    190.1892               201.8221               362.8795

                     28                     29                     30
                      A                      A                      A
 Frequencies --   1390.9489              1500.8316              3807.1968
 Red. masses --     12.6913                15.3746                 1.0657
 Frc consts  --     14.4670                20.4041                 9.1008
 IR Inten    --     82.4555               278.9339               190.1966

 - Thermochemistry -
 -------------------
 Temperature   298.150 Kelvin.  Pressure   1.00000 Atm.
 Atom     1 has atomic number  6 and mass  12.00000

 Molecular mass:   199.95666 amu.
 Principal axes and moments of inertia in atomic units:
                           1         2         3
     Eigenvalues --  1131.868872108.308252245.38257
           X            0.91592   0.40058  -0.02512
           Y            0.29544  -0.63050   0.71776
           Z           -0.27168   0.66483   0.69583
 This molecule is an asymmetric top.
 Rotational symmetry number  1.
 Warning -- assumption of classical behavior for rotation
           may cause significant error
 Rotational temperatures (Kelvin)      0.07652     0.04108     0.03857
 Rotational constants (GHZ):           1.59448     0.85601     0.80376
 Zero-point vibrational energy     139676.4 (Joules/Mol)
                                   33.38345 (Kcal/Mol)
 Warning -- explicit consideration of  16 degrees of freedom as
           vibrations may cause significant error
 Vibrational temperatures:     64.81   101.48   193.58   278.64   321.40
          (Kelvin)            347.65   412.83   453.95   464.58   510.33
                              545.97   642.53   680.67   760.77   780.99
                              877.27   906.77   955.52  1124.32  1299.74
                             1497.23  1638.86  1721.15  1806.68  1834.35
                             1852.32  1885.70  2001.27  2159.36  5477.71

 Zero-point correction=                           0.053200 (Hartree/Particle)
 Thermal correction to Energy=                    0.063455
 Thermal correction to Enthalpy=                  0.064400
 Thermal correction to Gibbs Free Energy=         0.016572
 Sum of electronic and zero-point Energies=          -1199.887356
 Sum of electronic and thermal Energies=             -1199.877101
 Sum of electronic and thermal Enthalpies=           -1199.876157
 Sum of electronic and thermal Free Energies=        -1199.923985

                     E (Thermal)             CV                S
                      KCal/Mol        Cal/Mol-Kelvin    Cal/Mol-Kelvin
 Total                   39.819             35.990            100.663
 Electronic               0.000              0.000              0.000
 Translational            0.889              2.981             41.783
 Rotational               0.889              2.981             30.061
 Vibrational             38.041             30.028             28.818
 Vibration     1          0.595              1.979              5.024
 Vibration     2          0.598              1.968              4.138
 Vibration     3          0.613              1.919              2.880
 Vibration     4          0.635              1.849              2.192
 Vibration     5          0.649              1.805              1.931
 Vibration     6          0.658              1.777              1.791
 Vibration     7          0.684              1.698              1.492
 Vibration     8          0.703              1.644              1.333
 Vibration     9          0.708              1.630              1.295
 Vibration    10          0.731              1.566              1.145
 Vibration    11          0.749              1.514              1.041
 Vibration    12          0.806              1.368              0.806
 Vibration    13          0.830              1.310              0.729
 Vibration    14          0.884              1.186              0.590
 Vibration    15          0.898              1.155              0.559
 Vibration    16          0.969              1.011              0.433

 Optimization completed.
    -- Stationary point found.
 Normal termination of Gaussian 16 at Sat May 24 06:09:52 2025.
