 Gaussian 16, Revision C.01,
 Gaussian 16:  ES64L-G16RevC.01  3-Jul-2019

 -----------------------------------------------------------------
 #P M062X/Def2TZVPP Symm(None) scf(xqc) pop(None) freq opt(CalcFC)
 -----------------------------------------------------------------

 ------------------------------
 Gaussian input prepared by ASE
 ------------------------------
 Symbolic Z-matrix:
 Charge =  0 Multiplicity = 1

 SCF Done:  E(RM062X) =  -1199.93649552     A.U. after   13 cycles
 SCF Done:  E(RM062X) =  -1199.93694371     A.U. after   12 cycles
 SCF Done:  E(RM062X) =  -1199.93834496     A.U. after   12 cycles
 SCF Done:  E(RM062X) =  -1199.94004830     A.U. after   13 cycles
 SCF Done:  E(RM062X) =  -1199.94018970     A.U. after   12 cycles
 SCF Done:  E(RM062X) =  -1199.93977228     A.U. after   12 cycles
 SCF Done:  E(RM062X) =  -1199.94039832     A.U. after   12 cycles
 SCF Done:  E(RM062X) =  -1199.94017680     A.U. after   12 cycles
 SCF Done:  E(RM062X) =  -1199.94057236     A.U. after   11 cycles
 SCF Done:  E(RM062X) =  -1199.94056292     A.U. after   11 cycles
 SCF Done:  E(RM062X) =  -1199.94064350     A.U. after   11 cycles
 SCF Done:  E(RM062X) =  -1199.94065895     A.U. after    9 cycles
 SCF Done:  E(RM062X) =  -1199.94067243     A.U. after   10 cycles
 SCF Done:  E(RM062X) =  -1199.94067609     A.U. after   10 cycles
 SCF Done:  E(RM062X) =  -1199.94067792     A.U. after    8 cycles
 Optimization completed.
    -- Stationary point found.
 Normal termination of Gaussian 16 at Sat May 24 04:35:00 2025.

 ---------------------------------------------------------------------
 #P Geom=AllCheck Guess=TCheck SCRF=Check GenChk RM062X/def2TZVPP Freq
 ---------------------------------------------------------------------

 Structure from the checkpoint file:  "2003846667223680600001_r12_insertion_R_6_5_2_IRC_F_prod.chk"
 ------------------------------
 Gaussian input prepared by ASE
 ------------------------------
 Charge =  0 Multiplicity = 1

                          Input orientation:
 ---------------------------------------------------------------------
 Center     Atomic      Atomic             Coordinates (Angstroms)
 Number     Number       Type             X           Y           Z
 ---------------------------------------------------------------------
      1          6           0       -1.112012   -0.973437   -0.053129
      2          6           0       -0.427303    0.383801   -0.333041
      3          9           0       -0.307648    0.534549   -1.657974
      4          9           0       -1.188247    1.360047    0.153843
      5         16           0        1.256743    0.532478    0.401349
      6          8           0        1.106680    0.752518    1.786914
      7          8           0        2.043329   -0.511155   -0.151753
      8          8           0        1.673451    1.901213   -0.249447
      9          9           0       -2.355632   -0.922961   -0.508713
     10          9           0       -0.469770   -1.951813   -0.665930
     11          9           0       -1.136679   -1.210011    1.248365
     12          1           0        2.091843    1.750553   -1.109548
 ---------------------------------------------------------------------

 SCF Done:  E(RM062X) =  -1199.94067792     A.U. after    1 cycles

 Isotropic polarizability for W=    0.000000       53.48 Bohr**3.
 End of Minotr F.D. properties file   721 does not exist.

                      1                      2                      3
                      A                      A                      A
 Frequencies --     21.4096                68.6198               128.3602
 Red. masses --     14.4550                13.9988                14.5050
 Frc consts  --      0.0039                 0.0388                 0.1408
 IR Inten    --      1.2935                 0.9229                 1.3904

                      4                      5                      6
                      A                      A                      A
 Frequencies --    193.9885               220.3738               237.6860
 Red. masses --      9.0635                16.6056                 7.9163
 Frc consts  --      0.2010                 0.4751                 0.2635
 IR Inten    --      8.4110                 1.6886                11.7314

                      7                      8                      9
                      A                      A                      A
 Frequencies --    283.7934               317.8095               323.5318
 Red. masses --     13.5356                 5.1486                17.8970
 Frc consts  --      0.6423                 0.3064                 1.1037
 IR Inten    --      0.3339                15.7987                 0.0486

                     10                     11                     12
                      A                      A                      A
 Frequencies --    364.1978               376.1916               445.2487
 Red. masses --      1.8266                15.7223                 4.8431
 Frc consts  --      0.1427                 1.3109                 0.5657
 IR Inten    --     54.3176                 1.1046                22.4282

                     13                     14                     15
                      A                      A                      A
 Frequencies --    499.2071               506.9884               543.8995
 Red. masses --      7.6623                14.4948                17.7613
 Frc consts  --      1.1251                 2.1951                 3.0957
 IR Inten    --      6.7173                33.3966                25.3420

                     16                     17                     18
                      A                      A                      A
 Frequencies --    609.0328               631.0821               664.0475
 Red. masses --     17.1571                19.4394                17.6371
 Frc consts  --      3.7495                 4.5615                 4.5822
 IR Inten    --      3.6656               110.4600                48.0367

                     19                     20                     21
                      A                      A                      A
 Frequencies --    781.9060               896.9650              1041.2159
 Red. masses --     17.3677                16.5848                14.0086
 Frc consts  --      6.2561                 7.8616                 8.9480
 IR Inten    --     19.4824               227.6517                29.0323

                     22                     23                     24
                      A                      A                      A
 Frequencies --   1138.9820              1200.8488              1256.0886
 Red. masses --      1.1819                13.6398                15.8946
 Frc consts  --      0.9034                11.5887                14.7755
 IR Inten    --     92.7476               248.1983                17.0261

                     25                     26                     27
                      A                      A                      A
 Frequencies --   1263.1628              1302.0845              1305.4430
 Red. masses --     13.3610                13.8356                13.2013
 Frc consts  --     12.5606                13.8206                13.2551
 IR Inten    --     89.2505               320.8310               235.2397

                     28                     29                     30
                      A                      A                      A
 Frequencies --   1389.4064              1503.9780              3808.8623
 Red. masses --     12.6833                15.5018                 1.0657
 Frc consts  --     14.4258                20.6593                 9.1087
 IR Inten    --     91.6872               296.0401               188.2797

 - Thermochemistry -
 -------------------
 Temperature   298.150 Kelvin.  Pressure   1.00000 Atm.
 Atom     1 has atomic number  6 and mass  12.00000

 Molecular mass:   199.95666 amu.
 Principal axes and moments of inertia in atomic units:
                           1         2         3
     Eigenvalues --  1118.681932148.483392266.81820
           X            0.82820  -0.39835  -0.39422
           Y            0.54281   0.74519   0.38735
           Z            0.13946  -0.53479   0.83340
 This molecule is an asymmetric top.
 Rotational symmetry number  1.
 Warning -- assumption of classical behavior for rotation
           may cause significant error
 Rotational temperatures (Kelvin)      0.07742     0.04031     0.03821
 Rotational constants (GHZ):           1.61327     0.84001     0.79616
 Zero-point vibrational energy     139511.0 (Joules/Mol)
                                   33.34392 (Kcal/Mol)
 Warning -- explicit consideration of  16 degrees of freedom as
           vibrations may cause significant error
 Vibrational temperatures:     30.80    98.73   184.68   279.11   317.07
          (Kelvin)            341.98   408.32   457.26   465.49   524.00
                              541.26   640.61   718.25   729.44   782.55
                              876.26   907.99   955.42  1124.99  1290.53
                             1498.08  1638.74  1727.75  1807.23  1817.41
                             1873.41  1878.24  1999.05  2163.89  5480.10

 Zero-point correction=                           0.053137 (Hartree/Particle)
 Thermal correction to Energy=                    0.063458
 Thermal correction to Enthalpy=                  0.064402
 Thermal correction to Gibbs Free Energy=         0.015791
 Sum of electronic and zero-point Energies=          -1199.887541
 Sum of electronic and thermal Energies=             -1199.877220
 Sum of electronic and thermal Enthalpies=           -1199.876276
 Sum of electronic and thermal Free Energies=        -1199.924887

                     E (Thermal)             CV                S
                      KCal/Mol        Cal/Mol-Kelvin    Cal/Mol-Kelvin
 Total                   39.821             35.996            102.311
 Electronic               0.000              0.000              0.000
 Translational            0.889              2.981             41.783
 Rotational               0.889              2.981             30.078
 Vibrational             38.043             30.035             30.450
 Vibration     1          0.593              1.985              6.499
 Vibration     2          0.598              1.969              4.193
 Vibration     3          0.611              1.925              2.970
 Vibration     4          0.635              1.848              2.189
 Vibration     5          0.647              1.810              1.956
 Vibration     6          0.656              1.783              1.820
 Vibration     7          0.682              1.704              1.511
 Vibration     8          0.704              1.640              1.321
 Vibration     9          0.708              1.628              1.292
 Vibration    10          0.738              1.546              1.104
 Vibration    11          0.747              1.521              1.054
 Vibration    12          0.805              1.371              0.810
 Vibration    13          0.855              1.252              0.660
 Vibration    14          0.862              1.235              0.641
 Vibration    15          0.899              1.153              0.557
 Vibration    16          0.968              1.013              0.434

                           ! Non-Optimized Parameters !
 Normal termination of Gaussian 16 at Sat May 24 04:39:25 2025.
