 Gaussian 16, Revision C.01,
 Gaussian 16:  ES64L-G16RevC.01  3-Jul-2019

 ----------------------------------------------------------------------
 #P M062X/Def2TZVPP Symm(None) scf(xqc) pop(None) opt(NoFreeze,TS,CalcA
 ll,NoEigentest,MaxCycle=999)
 ----------------------------------------------------------------------

 ------------------------------
 Gaussian input prepared by ASE
 ------------------------------
 Symbolic Z-matrix:
 Charge =  0 Multiplicity = 1

 SCF Done:  E(RM062X) =  -1199.76946100     A.U. after   16 cycles
 SCF Done:  E(RM062X) =  -1199.76608378     A.U. after   15 cycles
 SCF Done:  E(RM062X) =  -1199.75396666     A.U. after   18 cycles
 SCF Done:  E(RM062X) =  -1199.73974138     A.U. after   21 cycles
 SCF Done:  E(RM062X) =  -1199.72740605     A.U. after   23 cycles
 SCF Done:  E(RM062X) =  -1199.71903627     A.U. after   24 cycles
 SCF Done:  E(RM062X) =  -1199.71641692     A.U. after   20 cycles
 SCF Done:  E(RM062X) =  -1199.71642098     A.U. after   13 cycles
 SCF Done:  E(RM062X) =  -1199.71642991     A.U. after   13 cycles
 SCF Done:  E(RM062X) =  -1199.71643156     A.U. after   11 cycles
 SCF Done:  E(RM062X) =  -1199.71681479     A.U. after   17 cycles
 SCF Done:  E(RM062X) =  -1199.71684867     A.U. after   15 cycles
 SCF Done:  E(RM062X) =  -1199.71686305     A.U. after   15 cycles
 SCF Done:  E(RM062X) =  -1199.71686379     A.U. after   13 cycles
 SCF Done:  E(RM062X) =  -1199.71673888     A.U. after   16 cycles
 SCF Done:  E(RM062X) =  -1199.71685217     A.U. after   14 cycles
 SCF Done:  E(RM062X) =  -1199.71686242     A.U. after   15 cycles
 SCF Done:  E(RM062X) =  -1199.71686265     A.U. after   15 cycles
 SCF Done:  E(RM062X) =  -1199.71686381     A.U. after   14 cycles
 SCF Done:  E(RM062X) =  -1199.71686382     A.U. after   11 cycles

 Isotropic polarizability for W=    0.000000       65.62 Bohr**3.
 End of Minotr F.D. properties file   721 does not exist.

 Optimization completed on the basis of negligible forces.
    -- Stationary point found.

                          Input orientation:
 ---------------------------------------------------------------------
 Center     Atomic      Atomic             Coordinates (Angstroms)
 Number     Number       Type             X           Y           Z
 ---------------------------------------------------------------------
      1          6           0       -0.634329   -1.370105    0.158742
      2          6           0        0.093283   -0.048541   -0.207131
      3          9           0        0.168483    0.088659   -1.507213
      4          9           0       -0.494710    0.972513    0.365352
      5         16           0        1.875218   -0.096637    0.451386
      6          8           0        1.911756    0.099648    1.844581
      7          8           0        2.671966   -0.983461   -0.297062
      8          8           0        2.270009    2.173223   -0.548809
      9          9           0       -1.876005   -1.294752   -0.276303
     10          9           0       -0.020435   -2.389830   -0.413452
     11          9           0       -0.628500   -1.531279    1.470583
     12          1           0        2.111202    1.260153   -0.146475
 ---------------------------------------------------------------------

 ******    2 imaginary frequencies (negative Signs) ******

                      1                      2                      3
                      A                      A                      A
 Frequencies --  -1668.5025             -1593.8042                15.3203
 Red. masses --      1.0312                 1.0363                17.3072
 Frc consts  --      1.6914                 1.5509                 0.0024
 IR Inten    --    115.3634               151.6851                 0.9624

                      4                      5                      6
                      A                      A                      A
 Frequencies --     64.1048               107.0494               150.3265
 Red. masses --     16.6790                15.4728                15.8208
 Frc consts  --      0.0404                 0.1045                 0.2106
 IR Inten    --      1.8153                 6.3156                 0.3456

                      7                      8                      9
                      A                      A                      A
 Frequencies --    171.9968               202.2458               219.2443
 Red. masses --     16.3594                17.0682                18.4328
 Frc consts  --      0.2851                 0.4113                 0.5220
 IR Inten    --      0.1764                 8.7386                 0.0272

                     10                     11                     12
                      A                      A                      A
 Frequencies --    254.2146               303.4261               333.8536
 Red. masses --     17.2938                18.3222                18.7173
 Frc consts  --      0.6585                 0.9939                 1.2291
 IR Inten    --     12.5984                 0.3838                 1.7381

                     13                     14                     15
                      A                      A                      A
 Frequencies --    356.0772               377.9438               462.9508
 Red. masses --     14.9520                15.4179                17.8725
 Frc consts  --      1.1170                 1.2976                 2.2569
 IR Inten    --      1.2372                 0.4644                 0.5162

                     16                     17                     18
                      A                      A                      A
 Frequencies --    516.6487               557.8821               573.1489
 Red. masses --     17.9684                19.0447                18.9249
 Frc consts  --      2.8259                 3.4923                 3.6628
 IR Inten    --    120.0116               111.6181                55.6449

                     19                     20                     21
                      A                      A                      A
 Frequencies --    606.7802               660.5102               777.8076
 Red. masses --     17.7361                17.2331                16.6865
 Frc consts  --      3.8474                 4.4297                 5.9478
 IR Inten    --      1.3856                 2.5012                33.9588

                     22                     23                     24
                      A                      A                      A
 Frequencies --    952.0355              1187.7194              1261.1611
 Red. masses --     13.7676                13.9038                17.1505
 Frc consts  --      7.3522                11.5561                16.0719
 IR Inten    --    127.9600               121.3525                41.6718

                     25                     26                     27
                      A                      A                      A
 Frequencies --   1307.4743              1311.9708              1352.6299
 Red. masses --     13.1369                13.2495                13.3549
 Frc consts  --     13.2315                13.4369                14.3962
 IR Inten    --    194.4926               231.6915               173.2314

                     28                     29                     30
                      A                      A                      A
 Frequencies --   1367.5054              1542.4587              3373.8361
 Red. masses --     12.6630                19.9633                 1.0439
 Frc consts  --     13.9522                27.9840                 7.0012
 IR Inten    --    290.2040               192.7497              3086.1256

 - Thermochemistry -
 -------------------
 Temperature   298.150 Kelvin.  Pressure   1.00000 Atm.
 Atom     1 has atomic number  6 and mass  12.00000

 Molecular mass:   199.95666 amu.
 Principal axes and moments of inertia in atomic units:
                           1         2         3
     Eigenvalues --  1224.240202276.865972502.38984
           X            0.81926  -0.48337  -0.30849
           Y            0.57319   0.70567   0.41651
           Z            0.01636  -0.51805   0.85519
 This molecule is an asymmetric top.
 Rotational symmetry number  1.
 Warning -- assumption of classical behavior for rotation
           may cause significant error
 Rotational temperatures (Kelvin)      0.07075     0.03804     0.03461
 Rotational constants (GHZ):           1.47417     0.79264     0.72121
    2 imaginary frequencies ignored.
 Zero-point vibrational energy     121829.6 (Joules/Mol)
                                   29.11798 (Kcal/Mol)
 Warning -- explicit consideration of  17 degrees of freedom as
           vibrations may cause significant error
 Vibrational temperatures:     22.04    92.23   154.02   216.29   247.47
          (Kelvin)            290.99   315.44   365.76   436.56   480.34
                              512.32   543.78   666.08   743.34   802.67
                              824.63   873.02   950.33  1119.09  1369.77
                             1708.86  1814.53  1881.16  1887.63  1946.13
                             1967.54  2219.25  4854.20

 Zero-point correction=                           0.046402 (Hartree/Particle)
 Thermal correction to Energy=                    0.057285
 Thermal correction to Enthalpy=                  0.058229
 Thermal correction to Gibbs Free Energy=         0.007712
 Sum of electronic and zero-point Energies=          -1199.670461
 Sum of electronic and thermal Energies=             -1199.659579
 Sum of electronic and thermal Enthalpies=           -1199.658635
 Sum of electronic and thermal Free Energies=        -1199.709152

                     E (Thermal)             CV                S
                      KCal/Mol        Cal/Mol-Kelvin    Cal/Mol-Kelvin
 Total                   35.947             36.178            106.322
 Electronic               0.000              0.000              0.000
 Translational            0.889              2.981             41.783
 Rotational               0.889              2.981             30.324
 Vibrational             34.169             30.217             34.215
 Vibration     1          0.593              1.986              7.164
 Vibration     2          0.597              1.971              4.327
 Vibration     3          0.606              1.944              3.322
 Vibration     4          0.618              1.902              2.668
 Vibration     5          0.626              1.877              2.414
 Vibration     6          0.639              1.837              2.113
 Vibration     7          0.647              1.812              1.965
 Vibration     8          0.665              1.756              1.701
 Vibration     9          0.695              1.667              1.398
 Vibration    10          0.715              1.608              1.241
 Vibration    11          0.732              1.563              1.139
 Vibration    12          0.748              1.517              1.047
 Vibration    13          0.821              1.332              0.758
 Vibration    14          0.872              1.213              0.618
 Vibration    15          0.913              1.122              0.528
 Vibration    16          0.929              1.089              0.498
 Vibration    17          0.965              1.017              0.438

 Normal termination of Gaussian 16 at Sat May 24 07:03:53 2025.
