 Gaussian 16, Revision C.01,
 Gaussian 16:  ES64L-G16RevC.01  3-Jul-2019

 ----------------------------------------------------------------------
 #P M062X/Def2TZVPP Symm(None) scf(xqc) pop(None) opt(NoFreeze,TS,CalcA
 ll,NoEigentest,MaxCycle=999)
 ----------------------------------------------------------------------

 ------------------------------
 Gaussian input prepared by ASE
 ------------------------------
 Symbolic Z-matrix:
 Charge =  0 Multiplicity = 1

 SCF Done:  E(RM062X) =  -1199.58780383     A.U. after   28 cycles
 SCF Done:  E(RM062X) =  -1199.62642739     A.U. after   22 cycles
 SCF Done:  E(RM062X) =  -1199.65667892     A.U. after   21 cycles
 SCF Done:  E(RM062X) =  -1199.68503915     A.U. after   20 cycles
 SCF Done:  E(RM062X) =  -1199.71252182     A.U. after   20 cycles
 SCF Done:  E(RM062X) =  -1199.72822604     A.U. after   19 cycles
 SCF Done:  E(RM062X) =  -1199.73499135     A.U. after   20 cycles
 SCF Done:  E(RM062X) =  -1199.73805568     A.U. after   20 cycles
 SCF Done:  E(RM062X) =  -1199.73997096     A.U. after   18 cycles
 SCF Done:  E(RM062X) =  -1199.74044003     A.U. after   15 cycles
 SCF Done:  E(RM062X) =  -1199.74079006     A.U. after   17 cycles
 SCF Done:  E(RM062X) =  -1199.74088776     A.U. after   14 cycles
 SCF Done:  E(RM062X) =  -1199.74088909     A.U. after   10 cycles

 Isotropic polarizability for W=    0.000000       66.73 Bohr**3.
 End of Minotr F.D. properties file   721 does not exist.

 Optimization completed.
    -- Stationary point found.

                          Input orientation:
 ---------------------------------------------------------------------
 Center     Atomic      Atomic             Coordinates (Angstroms)
 Number     Number       Type             X           Y           Z
 ---------------------------------------------------------------------
      1          6           0       -0.666838   -1.008562    0.610589
      2          6           0       -0.140575   -0.012916   -0.433406
      3          9           0       -0.572457   -0.381455   -1.643778
      4          9           0       -0.639515    1.196801   -0.149781
      5         16           0        1.844760    0.342382   -0.682871
      6          8           0        2.003853   -1.165318   -0.562452
      7          8           0        3.357370   -0.027992   -0.908745
      8          8           0        1.929696    0.979889    0.778268
      9          9           0       -0.334305   -2.248263    0.283840
     10          9           0       -0.169832   -0.729565    1.808677
     11          9           0       -1.993906   -0.935507    0.678034
     12          1           0        2.829692    0.870096    1.115822
 ---------------------------------------------------------------------

 ******    1 imaginary frequencies (negative Signs) ******

                      1                      2                      3
                      A                      A                      A
 Frequencies --   -944.8603                44.1971                85.0270
 Red. masses --     18.0902                15.8260                13.7404
 Frc consts  --      9.5154                 0.0182                 0.0585
 IR Inten    --    545.9287                 0.2221                 0.5858

                      4                      5                      6
                      A                      A                      A
 Frequencies --    122.0816               156.8692               189.2405
 Red. masses --     13.6809                 5.6152                 3.9396
 Frc consts  --      0.1201                 0.0814                 0.0831
 IR Inten    --      1.0283                 8.6052                17.1258

                      7                      8                      9
                      A                      A                      A
 Frequencies --    226.3945               235.6982               257.2027
 Red. masses --     18.5479                 8.7870                 2.4762
 Frc consts  --      0.5601                 0.2876                 0.0965
 IR Inten    --      1.3184                 6.6720                47.6939

                     10                     11                     12
                      A                      A                      A
 Frequencies --    297.6675               311.8673               369.6904
 Red. masses --     16.6634                 4.4124                18.2339
 Frc consts  --      0.8699                 0.2529                 1.4683
 IR Inten    --      1.7252                20.5353                 2.4885

                     13                     14                     15
                      A                      A                      A
 Frequencies --    395.6640               451.3493               461.5482
 Red. masses --     14.9177                14.0571                 6.9703
 Frc consts  --      1.3760                 1.6872                 0.8749
 IR Inten    --     19.5321                 3.1302                29.7328

                     16                     17                     18
                      A                      A                      A
 Frequencies --    544.6222               601.8478               638.5045
 Red. masses --     17.7121                17.6612                17.1142
 Frc consts  --      3.0954                 3.7692                 4.1109
 IR Inten    --      4.8091                 1.1848                 7.8787

                     19                     20                     21
                      A                      A                      A
 Frequencies --    756.2726               808.2644               870.6509
 Red. masses --     16.3188                16.9014                16.6334
 Frc consts  --      5.4991                 6.5055                 7.4288
 IR Inten    --     56.5595                68.5438               150.5675

                     22                     23                     24
                      A                      A                      A
 Frequencies --    940.1451              1098.8282              1158.7664
 Red. masses --     13.7028                 6.2569                 2.2848
 Frc consts  --      7.1359                 4.4511                 1.8075
 IR Inten    --    100.6272                37.6250               155.5753

                     25                     26                     27
                      A                      A                      A
 Frequencies --   1167.6195              1236.8919              1263.3653
 Red. masses --      2.8383                 9.0500                13.1627
 Frc consts  --      2.2798                 8.1576                12.3781
 IR Inten    --    140.5677                93.7237               227.3416

                     28                     29                     30
                      A                      A                      A
 Frequencies --   1290.9482              1368.3022              3812.6711
 Red. masses --     13.1455                12.2445                 1.0654
 Frc consts  --     12.9076                13.5069                 9.1251
 IR Inten    --    281.0004               280.8521               166.1973

 - Thermochemistry -
 -------------------
 Temperature   298.150 Kelvin.  Pressure   1.00000 Atm.
 Atom     1 has atomic number  6 and mass  12.00000

 Molecular mass:   199.95666 amu.
 Principal axes and moments of inertia in atomic units:
                           1         2         3
     Eigenvalues --  1089.549252394.801082455.93846
           X            0.92024  -0.37474   0.11277
           Y            0.28409   0.83789   0.46608
           Z           -0.26915  -0.39687   0.87753
 This molecule is an asymmetric top.
 Rotational symmetry number  1.
 Warning -- assumption of classical behavior for rotation
           may cause significant error
 Rotational temperatures (Kelvin)      0.07950     0.03617     0.03527
 Rotational constants (GHZ):           1.65641     0.75361     0.73485
    1 imaginary frequencies ignored.
 Zero-point vibrational energy     126578.1 (Joules/Mol)
                                   30.25288 (Kcal/Mol)
 Warning -- explicit consideration of  16 degrees of freedom as
           vibrations may cause significant error
 Vibrational temperatures:     63.59   122.33   175.65   225.70   272.27
          (Kelvin)            325.73   339.12   370.06   428.28   448.71
                              531.90   569.27   649.39   664.06   783.59
                              865.92   918.67  1088.11  1162.91  1252.67
                             1352.66  1580.97  1667.21  1679.94  1779.61
                             1817.70  1857.39  1968.68  5485.58

 Zero-point correction=                           0.048211 (Hartree/Particle)
 Thermal correction to Energy=                    0.058938
 Thermal correction to Enthalpy=                  0.059882
 Thermal correction to Gibbs Free Energy=         0.010967
 Sum of electronic and zero-point Energies=          -1199.692678
 Sum of electronic and thermal Energies=             -1199.681951
 Sum of electronic and thermal Enthalpies=           -1199.681007
 Sum of electronic and thermal Free Energies=        -1199.729923

                     E (Thermal)             CV                S
                      KCal/Mol        Cal/Mol-Kelvin    Cal/Mol-Kelvin
 Total                   36.984             36.798            102.951
 Electronic               0.000              0.000              0.000
 Translational            0.889              2.981             41.783
 Rotational               0.889              2.981             30.239
 Vibrational             35.207             30.836             30.929
 Vibration     1          0.595              1.980              5.061
 Vibration     2          0.601              1.960              3.771
 Vibration     3          0.610              1.931              3.067
 Vibration     4          0.621              1.895              2.587
 Vibration     5          0.633              1.855              2.235
 Vibration     6          0.650              1.801              1.907
 Vibration     7          0.655              1.786              1.835
 Vibration     8          0.667              1.751              1.681
 Vibration     9          0.691              1.678              1.430
 Vibration    10          0.700              1.651              1.352
 Vibration    11          0.742              1.534              1.081
 Vibration    12          0.762              1.479              0.979
 Vibration    13          0.810              1.358              0.792
 Vibration    14          0.819              1.335              0.762
 Vibration    15          0.900              1.151              0.555
 Vibration    16          0.960              1.028              0.446

 Normal termination of Gaussian 16 at Sat May 24 03:56:23 2025.
