 Gaussian 16, Revision C.01,
 Gaussian 16:  ES64L-G16RevC.01  3-Jul-2019

 -----------------------------------------------------------------
 #P M062X/Def2TZVPP Symm(None) scf(xqc) pop(None) freq opt(CalcFC)
 -----------------------------------------------------------------

 ------------------------------
 Gaussian input prepared by ASE
 ------------------------------
 Symbolic Z-matrix:
 Charge =  0 Multiplicity = 1

 SCF Done:  E(RM062X) =  -1199.93929204     A.U. after   13 cycles
 SCF Done:  E(RM062X) =  -1199.94037159     A.U. after   12 cycles
 SCF Done:  E(RM062X) =  -1199.94054061     A.U. after   12 cycles
 SCF Done:  E(RM062X) =  -1199.94061766     A.U. after   11 cycles
 SCF Done:  E(RM062X) =  -1199.94065464     A.U. after   11 cycles
 SCF Done:  E(RM062X) =  -1199.94066754     A.U. after   11 cycles
 SCF Done:  E(RM062X) =  -1199.94067179     A.U. after    8 cycles
 SCF Done:  E(RM062X) =  -1199.94067355     A.U. after    7 cycles
 SCF Done:  E(RM062X) =  -1199.94067382     A.U. after    7 cycles
 Optimization completed.
    -- Stationary point found.
 Normal termination of Gaussian 16 at Sat May 24 07:30:42 2025.

 ---------------------------------------------------------------------
 #P Geom=AllCheck Guess=TCheck SCRF=Check GenChk RM062X/def2TZVPP Freq
 ---------------------------------------------------------------------

 Structure from the checkpoint file:  "2003846667223680600001_Intra_Diels_alder_R_6_7_IRC_R_prod.chk"
 ------------------------------
 Gaussian input prepared by ASE
 ------------------------------
 Charge =  0 Multiplicity = 1

                          Input orientation:
 ---------------------------------------------------------------------
 Center     Atomic      Atomic             Coordinates (Angstroms)
 Number     Number       Type             X           Y           Z
 ---------------------------------------------------------------------
      1          6           0       -1.195381   -0.856297    0.142218
      2          6           0       -0.448418    0.445318   -0.229184
      3          9           0       -0.743696    0.770240   -1.484600
      4          9           0       -0.861072    1.421076    0.589440
      5         16           0        1.383767    0.319320   -0.072133
      6          8           0        1.863240   -0.413579   -1.178392
      7          8           0        1.660533   -0.017817    1.278298
      8          8           0        1.743234    1.829570   -0.318013
      9          9           0       -0.719014   -1.870155   -0.561845
     10          9           0       -1.063111   -1.115220    1.430866
     11          9           0       -2.481971   -0.701284   -0.135965
     12          1           0        1.730988    2.318279    0.517770
 ---------------------------------------------------------------------

 SCF Done:  E(RM062X) =  -1199.94067382     A.U. after    1 cycles

 Isotropic polarizability for W=    0.000000       53.48 Bohr**3.
 End of Minotr F.D. properties file   721 does not exist.

                      1                      2                      3
                      A                      A                      A
 Frequencies --     22.6631                67.6984               127.4347
 Red. masses --     14.2067                14.1051                14.0843
 Frc consts  --      0.0043                 0.0381                 0.1348
 IR Inten    --      1.3601                 0.9362                 1.5530

                      4                      5                      6
                      A                      A                      A
 Frequencies --    190.1479               220.7243               236.4948
 Red. masses --      7.6728                15.9753                 7.1918
 Frc consts  --      0.1635                 0.4586                 0.2370
 IR Inten    --     10.4950                 2.1928                13.1170

                      7                      8                      9
                      A                      A                      A
 Frequencies --    283.4722               313.0439               323.2320
 Red. masses --     12.3785                 3.6055                17.9844
 Frc consts  --      0.5861                 0.2082                 1.1071
 IR Inten    --      0.1595                26.2512                 0.0546

                     10                     11                     12
                      A                      A                      A
 Frequencies --    352.9140               375.9843               442.9677
 Red. masses --      2.1743                17.8408                 5.5178
 Frc consts  --      0.1596                 1.4859                 0.6379
 IR Inten    --     45.5207                 0.2249                19.7594

                     13                     14                     15
                      A                      A                      A
 Frequencies --    498.6498               507.0319               543.9959
 Red. masses --      7.9978                14.5917                17.7960
 Frc consts  --      1.1717                 2.2102                 3.1029
 IR Inten    --      6.3451                33.0718                25.0482

                     16                     17                     18
                      A                      A                      A
 Frequencies --    609.0352               630.7752               664.0852
 Red. masses --     17.1496                19.4725                17.6288
 Frc consts  --      3.7479                 4.5648                 4.5806
 IR Inten    --      3.6890               109.5493                47.3629

                     19                     20                     21
                      A                      A                      A
 Frequencies --    781.6966               896.1955              1040.4674
 Red. masses --     17.3580                16.6425                14.0144
 Frc consts  --      6.2492                 7.8754                 8.9388
 IR Inten    --     19.8242               228.5028                28.8260

                     22                     23                     24
                      A                      A                      A
 Frequencies --   1135.6627              1200.7104              1256.5880
 Red. masses --      1.1827                13.6123                15.8920
 Frc consts  --      0.8987                11.5626                14.7847
 IR Inten    --     92.5190               246.7650                16.9562

                     25                     26                     27
                      A                      A                      A
 Frequencies --   1263.6793              1302.1533              1305.3447
 Red. masses --     13.3650                13.8659                13.2019
 Frc consts  --     12.5745                13.8523                13.2537
 IR Inten    --     89.2786               321.8383               234.9264

                     28                     29                     30
                      A                      A                      A
 Frequencies --   1388.8900              1503.7895              3810.3971
 Red. masses --     12.6916                15.5808                 1.0656
 Frc consts  --     14.4245                20.7593                 9.1160
 IR Inten    --     91.4492               296.3262               187.8526

 - Thermochemistry -
 -------------------
 Temperature   298.150 Kelvin.  Pressure   1.00000 Atm.
 Atom     1 has atomic number  6 and mass  12.00000

 Molecular mass:   199.95666 amu.
 Principal axes and moments of inertia in atomic units:
                           1         2         3
     Eigenvalues --  1118.929562147.685962266.31003
           X            0.89706  -0.43709  -0.06512
           Y            0.43594   0.85111   0.29253
           Z           -0.07244  -0.29080   0.95404
 This molecule is an asymmetric top.
 Rotational symmetry number  1.
 Warning -- assumption of classical behavior for rotation
           may cause significant error
 Rotational temperatures (Kelvin)      0.07741     0.04033     0.03822
 Rotational constants (GHZ):           1.61292     0.84032     0.79633
 Zero-point vibrational energy     139340.6 (Joules/Mol)
                                   33.30320 (Kcal/Mol)
 Warning -- explicit consideration of  16 degrees of freedom as
           vibrations may cause significant error
 Vibrational temperatures:     32.61    97.40   183.35   273.58   317.57
          (Kelvin)            340.26   407.85   450.40   465.06   507.76
                              540.96   637.33   717.45   729.51   782.69
                              876.27   907.54   955.47  1124.69  1289.43
                             1497.00  1633.97  1727.55  1807.95  1818.15
                             1873.51  1878.10  1998.30  2163.62  5482.31

 Zero-point correction=                           0.053072 (Hartree/Particle)
 Thermal correction to Energy=                    0.063423
 Thermal correction to Enthalpy=                  0.064368
 Thermal correction to Gibbs Free Energy=         0.015728
 Sum of electronic and zero-point Energies=          -1199.887602
 Sum of electronic and thermal Energies=             -1199.877250
 Sum of electronic and thermal Enthalpies=           -1199.876306
 Sum of electronic and thermal Free Energies=        -1199.924946

                     E (Thermal)             CV                S
                      KCal/Mol        Cal/Mol-Kelvin    Cal/Mol-Kelvin
 Total                   39.799             36.049            102.370
 Electronic               0.000              0.000              0.000
 Translational            0.889              2.981             41.783
 Rotational               0.889              2.981             30.078
 Vibrational             38.021             30.088             30.509
 Vibration     1          0.593              1.985              6.386
 Vibration     2          0.598              1.970              4.219
 Vibration     3          0.611              1.926              2.984
 Vibration     4          0.633              1.853              2.226
 Vibration     5          0.647              1.810              1.953
 Vibration     6          0.655              1.785              1.829
 Vibration     7          0.682              1.704              1.513
 Vibration     8          0.701              1.649              1.346
 Vibration     9          0.708              1.629              1.294
 Vibration    10          0.729              1.569              1.153
 Vibration    11          0.747              1.521              1.055
 Vibration    12          0.803              1.376              0.817
 Vibration    13          0.854              1.253              0.662
 Vibration    14          0.862              1.234              0.641
 Vibration    15          0.899              1.153              0.557
 Vibration    16          0.968              1.013              0.434

 Optimization completed.
    -- Stationary point found.
 Normal termination of Gaussian 16 at Sat May 24 07:34:31 2025.
