 Gaussian 16, Revision C.01,
 Gaussian 16:  ES64L-G16RevC.01  3-Jul-2019

 ----------------------------------------------------------------------
 #P M062X/Def2TZVPP Symm(None) scf(xqc) pop(None) geom(AllCheck,NoKeepC
 onstants) guess(Read) irc(RCFC,reverse,MaxPoints=100,StepSize=2)
 ----------------------------------------------------------------------

 Structure from the checkpoint file:  "2003846667223680600001_r12_insertion_R_9_1_2_IRC_R.chk"
 ------------------------------
 Gaussian input prepared by ASE
 ------------------------------
 Charge =  0 Multiplicity = 1

 SCF Done:  E(RM062X) =  -1199.74941007     A.U. after   10 cycles
 SCF Done:  E(RM062X) =  -1199.74955505     A.U. after   11 cycles
 SCF Done:  E(RM062X) =  -1199.74979899     A.U. after   11 cycles
 SCF Done:  E(RM062X) =  -1199.75014344     A.U. after   11 cycles
 SCF Done:  E(RM062X) =  -1199.75058962     A.U. after   11 cycles
 SCF Done:  E(RM062X) =  -1199.75113841     A.U. after   11 cycles
 SCF Done:  E(RM062X) =  -1199.75179038     A.U. after   11 cycles
 SCF Done:  E(RM062X) =  -1199.75254577     A.U. after   11 cycles
 SCF Done:  E(RM062X) =  -1199.75340455     A.U. after   11 cycles
 SCF Done:  E(RM062X) =  -1199.75436639     A.U. after   11 cycles
 SCF Done:  E(RM062X) =  -1199.90691386     A.U. after    9 cycles
 SCF Done:  E(RM062X) =  -1199.90793401     A.U. after    9 cycles
 SCF Done:  E(RM062X) =  -1199.90893273     A.U. after    9 cycles
 SCF Done:  E(RM062X) =  -1199.90991019     A.U. after    9 cycles
 SCF Done:  E(RM062X) =  -1199.91086660     A.U. after    9 cycles
 SCF Done:  E(RM062X) =  -1199.91180213     A.U. after    9 cycles
 SCF Done:  E(RM062X) =  -1199.91271696     A.U. after    9 cycles
 SCF Done:  E(RM062X) =  -1199.91361127     A.U. after    9 cycles
 SCF Done:  E(RM062X) =  -1199.91448523     A.U. after    9 cycles
 SCF Done:  E(RM062X) =  -1199.91533902     A.U. after    9 cycles

                          Input orientation:
 ---------------------------------------------------------------------
 Center     Atomic      Atomic             Coordinates (Angstroms)
 Number     Number       Type             X           Y           Z
 ---------------------------------------------------------------------
      1          6           0       -1.391772   -0.847963    0.259014
      2          6           0       -0.442599    0.452970    0.116122
      3          9           0       -0.865569    1.212919   -0.896648
      4          9           0       -0.421480    1.100039    1.274944
      5         16           0        1.478091    0.276719   -0.294930
      6          8           0        2.174754   -0.232985    0.824572
      7          8           0        1.656810   -0.222989   -1.613557
      8          8           0        1.774389    1.830009   -0.324860
      9          9           0       -0.478081   -1.790666    0.092573
     10          9           0       -2.005969   -1.018377    1.427692
     11          9           0       -2.365698   -0.991747   -0.636360
     12          1           0        1.664434    2.164525   -1.226464
 ---------------------------------------------------------------------

 Normal termination of Gaussian 16 at Sat May 24 05:22:36 2025.
