 Gaussian 16, Revision C.01,
 Gaussian 16:  ES64L-G16RevC.01  3-Jul-2019

 -----------------------------------------------------------------
 #P M062X/Def2TZVPP Symm(None) scf(xqc) pop(None) freq opt(CalcFC)
 -----------------------------------------------------------------

 ------------------------------
 Gaussian input prepared by ASE
 ------------------------------
 Symbolic Z-matrix:
 Charge =  0 Multiplicity = 1

 SCF Done:  E(RM062X) =  -1199.83935370     A.U. after   13 cycles
 SCF Done:  E(RM062X) =  -1199.84525486     A.U. after   12 cycles
 SCF Done:  E(RM062X) =  -1199.84754106     A.U. after   12 cycles
 SCF Done:  E(RM062X) =  -1199.84919411     A.U. after   12 cycles
 SCF Done:  E(RM062X) =  -1199.84988189     A.U. after   11 cycles
 SCF Done:  E(RM062X) =  -1199.85030606     A.U. after   12 cycles
 SCF Done:  E(RM062X) =  -1199.85054259     A.U. after   11 cycles
 SCF Done:  E(RM062X) =  -1199.85060773     A.U. after   10 cycles
 SCF Done:  E(RM062X) =  -1199.85064154     A.U. after   10 cycles
 SCF Done:  E(RM062X) =  -1199.85065113     A.U. after   10 cycles
 SCF Done:  E(RM062X) =  -1199.85101022     A.U. after   10 cycles
 SCF Done:  E(RM062X) =  -1199.85101055     A.U. after   10 cycles
 SCF Done:  E(RM062X) =  -1199.85101105     A.U. after    8 cycles
 SCF Done:  E(RM062X) =  -1199.85101110     A.U. after    8 cycles
 SCF Done:  E(RM062X) =  -1199.85101198     A.U. after   10 cycles
 SCF Done:  E(RM062X) =  -1199.85101224     A.U. after    8 cycles
 SCF Done:  E(RM062X) =  -1199.85101229     A.U. after    7 cycles
 SCF Done:  E(RM062X) =  -1199.85101232     A.U. after    7 cycles
 SCF Done:  E(RM062X) =  -1199.85101232     A.U. after    7 cycles
 Optimization completed.
    -- Stationary point found.
 Normal termination of Gaussian 16 at Sat May 24 06:06:31 2025.

 ---------------------------------------------------------------------
 #P Geom=AllCheck Guess=TCheck SCRF=Check GenChk RM062X/def2TZVPP Freq
 ---------------------------------------------------------------------

 Structure from the checkpoint file:  "2003846667223680600001_r12_insertion_R_9_1_2_IRC_F_prod.chk"
 ------------------------------
 Gaussian input prepared by ASE
 ------------------------------
 Charge =  0 Multiplicity = 1

                          Input orientation:
 ---------------------------------------------------------------------
 Center     Atomic      Atomic             Coordinates (Angstroms)
 Number     Number       Type             X           Y           Z
 ---------------------------------------------------------------------
      1          6           0       -2.962871   -0.873971    0.738861
      2          6           0        0.295696    0.158923    0.126222
      3          9           0       -0.570115    0.677601   -0.734328
      4          9           0        0.091686    0.673023    1.320603
      5         16           0        2.005420    0.535322   -0.444040
      6          8           0        2.884174    0.174945    0.600266
      7          8           0        2.113540    0.043072   -1.770822
      8          8           0        1.922661    2.105911   -0.478712
      9          9           0        0.145315   -1.151707    0.167333
     10          9           0       -4.074607   -1.234219    1.289784
     11          9           0       -2.958880   -1.468281   -0.409665
     12          1           0        1.652699    2.404505   -1.359030
 ---------------------------------------------------------------------

 SCF Done:  E(RM062X) =  -1199.85101232     A.U. after    1 cycles

 Isotropic polarizability for W=    0.000000       55.81 Bohr**3.
 End of Minotr F.D. properties file   721 does not exist.

                      1                      2                      3
                      A                      A                      A
 Frequencies --     17.4928                21.9167                23.3178
 Red. masses --     17.8234                15.9756                16.7450
 Frc consts  --      0.0032                 0.0045                 0.0054
 IR Inten    --      0.1736                 0.2801                 0.9560

                      4                      5                      6
                      A                      A                      A
 Frequencies --     45.3988                55.5101                61.3778
 Red. masses --     17.0329                16.0147                13.6967
 Frc consts  --      0.0207                 0.0291                 0.0304
 IR Inten    --      0.0417                 0.4153                 1.3535

                      7                      8                      9
                      A                      A                      A
 Frequencies --     85.5676               191.8242               198.7868
 Red. masses --     12.4276                 6.8923                17.0239
 Frc consts  --      0.0536                 0.1494                 0.3964
 IR Inten    --      1.0360                10.6040                 2.9200

                     10                     11                     12
                      A                      A                      A
 Frequencies --    311.0732               322.5672               343.7073
 Red. masses --      9.4581                 2.9212                13.4650
 Frc consts  --      0.5392                 0.1791                 0.9372
 IR Inten    --      1.5546                33.4488                 2.0170

                     13                     14                     15
                      A                      A                      A
 Frequencies --    374.3378               471.5085               506.6139
 Red. masses --      2.2238                 4.3912                15.0965
 Frc consts  --      0.1836                 0.5752                 2.2829
 IR Inten    --     47.6343                27.4218                25.1193

                     16                     17                     18
                      A                      A                      A
 Frequencies --    570.0672               576.3298               631.7096
 Red. masses --     15.6087                16.3427                19.9408
 Frc consts  --      2.9886                 3.1983                 4.6884
 IR Inten    --      0.9513                 3.2702               181.0449

                     19                     20                     21
                      A                      A                      A
 Frequencies --    692.6276               793.0239               905.9725
 Red. masses --     17.6940                17.6944                17.5720
 Frc consts  --      5.0012                 6.5563                 8.4977
 IR Inten    --      4.7779                 4.2332               230.9068

                     22                     23                     24
                      A                      A                      A
 Frequencies --   1141.9611              1186.5109              1194.8406
 Red. masses --      1.1855                13.5465                14.5387
 Frc consts  --      0.9109                11.2363                12.2291
 IR Inten    --     87.4896               534.2870               121.6447

                     25                     26                     27
                      A                      A                      A
 Frequencies --   1274.0218              1289.3936              1302.3050
 Red. masses --     13.3563                13.9035                13.4804
 Frc consts  --     12.7729                13.6190                13.4703
 IR Inten    --    141.3136               100.4964               173.5070

                     28                     29                     30
                      A                      A                      A
 Frequencies --   1306.2208              1503.8350              3812.2048
 Red. masses --     15.2391                15.3494                 1.0657
 Frc consts  --     15.3194                20.4524                 9.1249
 IR Inten    --    234.8051               291.5651               182.6628

 - Thermochemistry -
 -------------------
 Temperature   298.150 Kelvin.  Pressure   1.00000 Atm.
 Atom     1 has atomic number  6 and mass  12.00000

 Molecular mass:   199.95666 amu.
 Principal axes and moments of inertia in atomic units:
                           1         2         3
     Eigenvalues --   785.203224379.197684486.57372
           X            0.92913   0.04421  -0.36711
           Y            0.32447   0.37863   0.86681
           Z           -0.17732   0.92449  -0.33745
 This molecule is an asymmetric top.
 Rotational symmetry number  1.
 Warning -- assumption of classical behavior for rotation
           may cause significant error
 Rotational temperatures (Kelvin)      0.11031     0.01978     0.01931
 Rotational constants (GHZ):           2.29844     0.41212     0.40225
 Zero-point vibrational energy     126876.1 (Joules/Mol)
                                   30.32411 (Kcal/Mol)
 Warning -- explicit consideration of  17 degrees of freedom as
           vibrations may cause significant error
 Vibrational temperatures:     25.17    31.53    33.55    65.32    79.87
          (Kelvin)             88.31   123.11   275.99   286.01   447.56
                              464.10   494.52   538.59   678.40   728.90
                              820.20   829.21   908.89   996.54  1140.98
                             1303.49  1643.03  1707.12  1719.11  1833.03
                             1855.15  1873.73  1879.36  2163.68  5484.91

 Zero-point correction=                           0.048325 (Hartree/Particle)
 Thermal correction to Energy=                    0.061045
 Thermal correction to Enthalpy=                  0.061989
 Thermal correction to Gibbs Free Energy=         0.003391
 Sum of electronic and zero-point Energies=          -1199.802688
 Sum of electronic and thermal Energies=             -1199.789967
 Sum of electronic and thermal Enthalpies=           -1199.789023
 Sum of electronic and thermal Free Energies=        -1199.847621

                     E (Thermal)             CV                S
                      KCal/Mol        Cal/Mol-Kelvin    Cal/Mol-Kelvin
 Total                   38.306             38.932            123.330
 Electronic               0.000              0.000              0.000
 Translational            0.889              2.981             41.783
 Rotational               0.889              2.981             31.112
 Vibrational             36.529             32.970             50.434
 Vibration     1          0.593              1.986              6.900
 Vibration     2          0.593              1.985              6.452
 Vibration     3          0.593              1.985              6.329
 Vibration     4          0.595              1.979              5.008
 Vibration     5          0.596              1.975              4.611
 Vibration     6          0.597              1.973              4.412
 Vibration     7          0.601              1.959              3.759
 Vibration     8          0.634              1.851              2.210
 Vibration     9          0.637              1.842              2.144
 Vibration    10          0.700              1.653              1.357
 Vibration    11          0.708              1.630              1.297
 Vibration    12          0.722              1.588              1.195
 Vibration    13          0.745              1.525              1.062
 Vibration    14          0.828              1.313              0.733
 Vibration    15          0.862              1.235              0.642
 Vibration    16          0.926              1.096              0.504
 Vibration    17          0.933              1.082              0.492

 Optimization completed.
    -- Stationary point found.
 Normal termination of Gaussian 16 at Sat May 24 06:10:11 2025.
