 Gaussian 16, Revision C.01,
 Gaussian 16:  ES64L-G16RevC.01  3-Jul-2019

 ----------------------------------------------------------------------
 #P M062X/Def2TZVPP Symm(None) scf(xqc) pop(None) opt(NoFreeze,TS,CalcA
 ll,NoEigentest,MaxCycle=999)
 ----------------------------------------------------------------------

 ------------------------------
 Gaussian input prepared by ASE
 ------------------------------
 Symbolic Z-matrix:
 Charge =  0 Multiplicity = 1

 SCF Done:  E(RM062X) =  -1199.67695824     A.U. after   20 cycles
 SCF Done:  E(RM062X) =  -1199.75607656     A.U. after   15 cycles
 SCF Done:  E(RM062X) =  -1199.81277981     A.U. after   14 cycles
 SCF Done:  E(RM062X) =  -1199.82986079     A.U. after   15 cycles
 SCF Done:  E(RM062X) =  -1199.83032672     A.U. after   15 cycles
 SCF Done:  E(RM062X) =  -1199.82539981     A.U. after   16 cycles
 SCF Done:  E(RM062X) =  -1199.81966933     A.U. after   16 cycles
 SCF Done:  E(RM062X) =  -1199.81742330     A.U. after   16 cycles
 SCF Done:  E(RM062X) =  -1199.81697356     A.U. after   15 cycles
 SCF Done:  E(RM062X) =  -1199.81696057     A.U. after   12 cycles

 Isotropic polarizability for W=    0.000000       64.66 Bohr**3.
 End of Minotr F.D. properties file   721 does not exist.

 Optimization completed.
    -- Stationary point found.

                          Input orientation:
 ---------------------------------------------------------------------
 Center     Atomic      Atomic             Coordinates (Angstroms)
 Number     Number       Type             X           Y           Z
 ---------------------------------------------------------------------
      1          6           0       -0.479536   -1.425180    0.248590
      2          6           0       -0.369769    0.131207    0.044868
      3          9           0       -0.882493    0.461006   -1.110048
      4          9           0       -0.944829    0.791438    1.004621
      5         16           0        1.677280    0.622055    0.059110
      6          8           0        1.562739    0.392208    1.486669
      7          8           0        1.727478   -0.381454   -1.007398
      8          8           0        3.252148    1.000347    0.072028
      9          9           0       -0.394532   -2.035920   -0.911749
     10          9           0        0.394986   -1.918656    1.085831
     11          9           0       -1.704935   -1.616760    0.737718
     12          1           0        3.609401    0.859307   -0.816043
 ---------------------------------------------------------------------

 ******    1 imaginary frequencies (negative Signs) ******

                      1                      2                      3
                      A                      A                      A
 Frequencies --   -214.6087                42.2345                94.4075
 Red. masses --     12.9447                17.3994                12.5774
 Frc consts  --      0.3513                 0.0183                 0.0660
 IR Inten    --     53.8500                 0.2995                 4.0211

                      4                      5                      6
                      A                      A                      A
 Frequencies --    151.1693               204.1501               248.6344
 Red. masses --     14.3724                12.6654                17.0173
 Frc consts  --      0.1935                 0.3110                 0.6198
 IR Inten    --      6.0960                 0.4281                11.4408

                      7                      8                      9
                      A                      A                      A
 Frequencies --    255.0024               277.1728               286.2153
 Red. masses --     16.5714                15.4535                15.9330
 Frc consts  --      0.6349                 0.6995                 0.7690
 IR Inten    --     10.7981                 1.8050                15.7937

                     10                     11                     12
                      A                      A                      A
 Frequencies --    312.0129               380.7062               432.7882
 Red. masses --     17.9934                17.8104                 7.0648
 Frc consts  --      1.0321                 1.5209                 0.7797
 IR Inten    --      0.9923                 0.9848                15.5352

                     13                     14                     15
                      A                      A                      A
 Frequencies --    453.8562               542.0971               552.3576
 Red. masses --      1.5849                 2.9870                17.7316
 Frc consts  --      0.1924                 0.5172                 3.1874
 IR Inten    --     67.8801                29.3743                25.2953

                     16                     17                     18
                      A                      A                      A
 Frequencies --    598.9406               624.6640               654.5519
 Red. masses --     17.3147                17.3580                16.9949
 Frc consts  --      3.6596                 3.9907                 4.2900
 IR Inten    --      1.8311                96.8320                22.5660

                     19                     20                     21
                      A                      A                      A
 Frequencies --    730.8428               806.0166               857.0702
 Red. masses --     14.6160                14.8742                15.6116
 Frc consts  --      4.5997                 5.6934                 6.7567
 IR Inten    --    262.9791               132.9491               187.8901

                     22                     23                     24
                      A                      A                      A
 Frequencies --   1080.6050              1161.3990              1181.2190
 Red. masses --     14.6830                12.5760                 1.3505
 Frc consts  --     10.1018                 9.9944                 1.1102
 IR Inten    --     30.4584               168.1649               113.4735

                     25                     26                     27
                      A                      A                      A
 Frequencies --   1275.6911              1301.4543              1330.2511
 Red. masses --     13.3338                 7.5932                12.9346
 Frc consts  --     12.7849                 7.5776                13.4856
 IR Inten    --    286.0026                 8.4912               281.1701

                     28                     29                     30
                      A                      A                      A
 Frequencies --   1346.5325              1377.3643              3808.4351
 Red. masses --     13.0826                10.6024                 1.0659
 Frc consts  --     13.9758                11.8509                 9.1087
 IR Inten    --    103.7645               537.3889               172.6251

 - Thermochemistry -
 -------------------
 Temperature   298.150 Kelvin.  Pressure   1.00000 Atm.
 Atom     1 has atomic number  6 and mass  12.00000

 Molecular mass:   199.95666 amu.
 Principal axes and moments of inertia in atomic units:
                           1         2         3
     Eigenvalues --  1085.464422322.494702413.68417
           X            0.85982  -0.49868   0.10971
           Y            0.51019   0.84767  -0.14546
           Z           -0.02046   0.18104   0.98326
 This molecule is an asymmetric top.
 Rotational symmetry number  1.
 Warning -- assumption of classical behavior for rotation
           may cause significant error
 Rotational temperatures (Kelvin)      0.07979     0.03729     0.03588
 Rotational constants (GHZ):           1.66264     0.77707     0.74771
    1 imaginary frequencies ignored.
 Zero-point vibrational energy     133789.4 (Joules/Mol)
                                   31.97644 (Kcal/Mol)
 Warning -- explicit consideration of  15 degrees of freedom as
           vibrations may cause significant error
 Vibrational temperatures:     60.77   135.83   217.50   293.73   357.73
          (Kelvin)            366.89   398.79   411.80   448.92   547.75
                              622.69   653.00   779.96   794.72   861.74
                              898.75   941.75  1051.52  1159.68  1233.13
                             1554.75  1670.99  1699.51  1835.43  1872.50
                             1913.93  1937.36  1981.72  5479.49

 Zero-point correction=                           0.050958 (Hartree/Particle)
 Thermal correction to Energy=                    0.060890
 Thermal correction to Enthalpy=                  0.061834
 Thermal correction to Gibbs Free Energy=         0.014702
 Sum of electronic and zero-point Energies=          -1199.766003
 Sum of electronic and thermal Energies=             -1199.756071
 Sum of electronic and thermal Enthalpies=           -1199.755127
 Sum of electronic and thermal Free Energies=        -1199.802258

                     E (Thermal)             CV                S
                      KCal/Mol        Cal/Mol-Kelvin    Cal/Mol-Kelvin
 Total                   38.209             35.104             99.197
 Electronic               0.000              0.000              0.000
 Translational            0.889              2.981             41.783
 Rotational               0.889              2.981             30.188
 Vibrational             36.431             29.143             27.225
 Vibration     1          0.595              1.980              5.151
 Vibration     2          0.603              1.953              3.567
 Vibration     3          0.619              1.901              2.657
 Vibration     4          0.640              1.834              2.095
 Vibration     5          0.662              1.765              1.740
 Vibration     6          0.665              1.754              1.696
 Vibration     7          0.678              1.716              1.551
 Vibration     8          0.684              1.699              1.496
 Vibration     9          0.700              1.651              1.352
 Vibration    10          0.750              1.511              1.036
 Vibration    11          0.794              1.399              0.850
 Vibration    12          0.812              1.352              0.784
 Vibration    13          0.897              1.157              0.561
 Vibration    14          0.908              1.135              0.539
 Vibration    15          0.957              1.034              0.451

 Normal termination of Gaussian 16 at Sat May 24 03:44:14 2025.
