 Gaussian 16, Revision C.01,
 Gaussian 16:  ES64L-G16RevC.01  3-Jul-2019

 ----------------------------------------------------------------------
 #P M062X/Def2TZVPP Symm(None) scf(xqc) pop(None) geom(AllCheck,NoKeepC
 onstants) guess(Read) irc(RCFC,reverse,MaxPoints=100,StepSize=2)
 ----------------------------------------------------------------------

 Structure from the checkpoint file:  "2003846667223680600001_r12_insertion_R_3_2_1_IRC_R.chk"
 ------------------------------
 Gaussian input prepared by ASE
 ------------------------------
 Charge =  0 Multiplicity = 1

 SCF Done:  E(RM062X) =  -1199.74717177     A.U. after   10 cycles
 SCF Done:  E(RM062X) =  -1199.74731077     A.U. after   11 cycles
 SCF Done:  E(RM062X) =  -1199.74754013     A.U. after   11 cycles
 SCF Done:  E(RM062X) =  -1199.74785770     A.U. after   11 cycles
 SCF Done:  E(RM062X) =  -1199.74826112     A.U. after   11 cycles
 SCF Done:  E(RM062X) =  -1199.74874781     A.U. after   11 cycles
 SCF Done:  E(RM062X) =  -1199.74931500     A.U. after   11 cycles
 SCF Done:  E(RM062X) =  -1199.74995974     A.U. after   11 cycles
 SCF Done:  E(RM062X) =  -1199.75067887     A.U. after   11 cycles
 SCF Done:  E(RM062X) =  -1199.75146909     A.U. after   11 cycles
 SCF Done:  E(RM062X) =  -1199.82104264     A.U. after   11 cycles
 SCF Done:  E(RM062X) =  -1199.82130417     A.U. after   11 cycles
 SCF Done:  E(RM062X) =  -1199.82155845     A.U. after   11 cycles
 SCF Done:  E(RM062X) =  -1199.82180566     A.U. after   11 cycles
 SCF Done:  E(RM062X) =  -1199.82204599     A.U. after   10 cycles
 SCF Done:  E(RM062X) =  -1199.82227961     A.U. after    9 cycles
 SCF Done:  E(RM062X) =  -1199.82250669     A.U. after    9 cycles
 SCF Done:  E(RM062X) =  -1199.82272740     A.U. after    9 cycles
 SCF Done:  E(RM062X) =  -1199.82294189     A.U. after    9 cycles
 SCF Done:  E(RM062X) =  -1199.82315032     A.U. after    9 cycles

                          Input orientation:
 ---------------------------------------------------------------------
 Center     Atomic      Atomic             Coordinates (Angstroms)
 Number     Number       Type             X           Y           Z
 ---------------------------------------------------------------------
      1          6           0       -1.482077   -1.139378   -0.649973
      2          6           0       -0.141688    0.600221    1.129854
      3          9           0       -0.809866   -0.053058   -1.045658
      4          9           0       -0.684449    1.731441    0.876507
      5         16           0        1.566224    0.630072    0.457539
      6          8           0        2.170362    0.986510    1.697798
      7          8           0        1.927800   -0.541274   -0.265676
      8          8           0        1.704321    1.868098   -0.523176
      9          9           0       -1.985867   -1.703731   -1.717915
     10          9           0       -0.668464   -1.959202   -0.038919
     11          9           0       -2.442884   -0.764850    0.163427
     12          1           0        1.813783    1.545741   -1.428548
 ---------------------------------------------------------------------

 Normal termination of Gaussian 16 at Sat May 24 05:07:46 2025.
