 Gaussian 16, Revision C.01,
 Gaussian 16:  ES64L-G16RevC.01  3-Jul-2019

 -----------------------------------------------------------------
 #P M062X/Def2TZVPP Symm(None) scf(xqc) pop(None) freq opt(CalcFC)
 -----------------------------------------------------------------

 ------------------------------
 Gaussian input prepared by ASE
 ------------------------------
 Symbolic Z-matrix:
 Charge =  0 Multiplicity = 1

 SCF Done:  E(RM062X) =  -1199.93454522     A.U. after   13 cycles
 SCF Done:  E(RM062X) =  -1199.93998437     A.U. after   12 cycles
 SCF Done:  E(RM062X) =  -1199.94051476     A.U. after   11 cycles
 SCF Done:  E(RM062X) =  -1199.94056194     A.U. after   10 cycles
 SCF Done:  E(RM062X) =  -1199.94056359     A.U. after    8 cycles
 Optimization completed.
    -- Stationary point found.
 Normal termination of Gaussian 16 at Sat May 24 05:20:07 2025.

 ---------------------------------------------------------------------
 #P Geom=AllCheck Guess=TCheck SCRF=Check GenChk RM062X/def2TZVPP Freq
 ---------------------------------------------------------------------

 Structure from the checkpoint file:  "2003846667223680600001_r12_insertion_R_12_8_5_IRC_F_prod.chk"
 ------------------------------
 Gaussian input prepared by ASE
 ------------------------------
 Charge =  0 Multiplicity = 1

                          Input orientation:
 ---------------------------------------------------------------------
 Center     Atomic      Atomic             Coordinates (Angstroms)
 Number     Number       Type             X           Y           Z
 ---------------------------------------------------------------------
      1          6           0       -1.058312   -0.961938    0.075259
      2          6           0       -0.479267    0.466344   -0.048925
      3          9           0       -0.799125    0.957061   -1.252008
      4          9           0       -1.019861    1.229377    0.897141
      5         16           0        1.352950    0.579160    0.130798
      6          8           0        1.744056   -0.324672    1.142952
      7          8           0        1.809629   -0.024791   -1.245211
      8          8           0        1.650934    1.965848    0.153609
      9          9           0       -0.433022   -1.783364   -0.755397
     10          9           0       -0.936765   -1.406492    1.311029
     11          9           0       -2.345033   -0.926187   -0.244916
     12          1           0        1.873497    0.673187   -1.913247
 ---------------------------------------------------------------------

 SCF Done:  E(RM062X) =  -1199.94056359     A.U. after    1 cycles

 Isotropic polarizability for W=    0.000000       53.52 Bohr**3.
 End of Minotr F.D. properties file   721 does not exist.

                      1                      2                      3
                      A                      A                      A
 Frequencies --     47.5230                71.9789               136.2574
 Red. masses --     13.4891                15.7863                16.4165
 Frc consts  --      0.0179                 0.0482                 0.1796
 IR Inten    --      2.0338                 0.5871                 0.5246

                      4                      5                      6
                      A                      A                      A
 Frequencies --    192.8793               223.4504               242.0702
 Red. masses --      5.7674                17.5179                14.9928
 Frc consts  --      0.1264                 0.5153                 0.5176
 IR Inten    --     13.7981                 1.2535                 6.8343

                      7                      8                      9
                      A                      A                      A
 Frequencies --    286.7951               315.4022               323.5601
 Red. masses --     11.0013                17.0260                 6.1298
 Frc consts  --      0.5331                 0.9979                 0.3781
 IR Inten    --      0.8224                 0.1635                 9.6119

                     10                     11                     12
                      A                      A                      A
 Frequencies --    356.3675               379.5892               446.7890
 Red. masses --      2.0475                 5.6734                13.9853
 Frc consts  --      0.1532                 0.4816                 1.6449
 IR Inten    --     47.8401                12.7245                11.3837

                     13                     14                     15
                      A                      A                      A
 Frequencies --    473.3595               529.2374               542.9689
 Red. masses --      4.2512                14.4958                17.8963
 Frc consts  --      0.5612                 2.3922                 3.1086
 IR Inten    --     31.4630                17.4006                20.5875

                     16                     17                     18
                      A                      A                      A
 Frequencies --    609.7238               630.6149               664.3430
 Red. masses --     17.2533                19.2877                17.3790
 Frc consts  --      3.7791                 4.5192                 4.5192
 IR Inten    --      5.3529               109.0913                47.6835

                     19                     20                     21
                      A                      A                      A
 Frequencies --    781.5603               904.0607              1040.5974
 Red. masses --     17.3579                16.8083                13.5643
 Frc consts  --      6.2470                 8.0941                 8.6539
 IR Inten    --     11.4333               186.6201                96.9480

                     22                     23                     24
                      A                      A                      A
 Frequencies --   1139.8237              1196.8180              1256.1333
 Red. masses --      1.1867                13.9844                13.9252
 Frc consts  --      0.9084                11.8018                12.9456
 IR Inten    --     86.5377               127.4814                41.6071

                     25                     26                     27
                      A                      A                      A
 Frequencies --   1275.3717              1287.3376              1310.8759
 Red. masses --     14.8225                13.4533                13.3367
 Frc consts  --     14.2051                13.1360                13.5027
 IR Inten    --    192.4734               197.2937               364.4857

                     28                     29                     30
                      A                      A                      A
 Frequencies --   1390.8752              1501.8836              3805.8838
 Red. masses --     12.6912                15.3939                 1.0657
 Frc consts  --     14.4653                20.4584                 9.0946
 IR Inten    --     82.7866               279.2969               190.8980

 - Thermochemistry -
 -------------------
 Temperature   298.150 Kelvin.  Pressure   1.00000 Atm.
 Atom     1 has atomic number  6 and mass  12.00000

 Molecular mass:   199.95666 amu.
 Principal axes and moments of inertia in atomic units:
                           1         2         3
     Eigenvalues --  1131.732272109.236272245.93115
           X            0.85874  -0.51033  -0.04618
           Y            0.51195   0.85063   0.11972
           Z           -0.02181  -0.12645   0.99173
 This molecule is an asymmetric top.
 Rotational symmetry number  1.
 Warning -- assumption of classical behavior for rotation
           may cause significant error
 Rotational temperatures (Kelvin)      0.07653     0.04106     0.03856
 Rotational constants (GHZ):           1.59467     0.85564     0.80356
 Zero-point vibrational energy     139748.5 (Joules/Mol)
                                   33.40070 (Kcal/Mol)
 Warning -- explicit consideration of  16 degrees of freedom as
           vibrations may cause significant error
 Vibrational temperatures:     68.38   103.56   196.04   277.51   321.50
          (Kelvin)            348.28   412.63   453.79   465.53   512.73
                              546.14   642.83   681.06   761.45   781.21
                              877.26   907.31   955.84  1124.49  1300.74
                             1497.19  1639.95  1721.95  1807.30  1834.98
                             1852.19  1886.06  2001.16  2160.88  5475.82

 Zero-point correction=                           0.053227 (Hartree/Particle)
 Thermal correction to Energy=                    0.063468
 Thermal correction to Enthalpy=                  0.064412
 Thermal correction to Gibbs Free Energy=         0.016670
 Sum of electronic and zero-point Energies=          -1199.887336
 Sum of electronic and thermal Energies=             -1199.877095
 Sum of electronic and thermal Enthalpies=           -1199.876151
 Sum of electronic and thermal Free Energies=        -1199.923894

                     E (Thermal)             CV                S
                      KCal/Mol        Cal/Mol-Kelvin    Cal/Mol-Kelvin
 Total                   39.827             35.975            100.482
 Electronic               0.000              0.000              0.000
 Translational            0.889              2.981             41.783
 Rotational               0.889              2.981             30.062
 Vibrational             38.049             30.014             28.637
 Vibration     1          0.595              1.979              4.918
 Vibration     2          0.598              1.967              4.098
 Vibration     3          0.614              1.917              2.856
 Vibration     4          0.635              1.850              2.200
 Vibration     5          0.649              1.805              1.931
 Vibration     6          0.658              1.776              1.788
 Vibration     7          0.684              1.698              1.493
 Vibration     8          0.703              1.644              1.334
 Vibration     9          0.708              1.628              1.292
 Vibration    10          0.732              1.562              1.138
 Vibration    11          0.750              1.514              1.041
 Vibration    12          0.806              1.368              0.806
 Vibration    13          0.830              1.309              0.728
 Vibration    14          0.884              1.185              0.589
 Vibration    15          0.898              1.155              0.559
 Vibration    16          0.969              1.011              0.433

 Optimization completed.
    -- Stationary point found.
 Normal termination of Gaussian 16 at Sat May 24 05:25:18 2025.
