 Gaussian 16, Revision C.01,
 Gaussian 16:  ES64L-G16RevC.01  3-Jul-2019

 ----------------------------------------------------------------------
 #P M062X/Def2TZVPP Symm(None) scf(xqc) pop(None) geom(AllCheck,NoKeepC
 onstants) guess(Read) irc(RCFC,forward,MaxPoints=100,StepSize=2)
 ----------------------------------------------------------------------

 Structure from the checkpoint file:  "2003846667223680600001_r12_insertion_R_5_2_1_IRC_F.chk"
 ------------------------------
 Gaussian input prepared by ASE
 ------------------------------
 Charge =  0 Multiplicity = 1

 SCF Done:  E(RM062X) =  -1199.76665242     A.U. after   10 cycles
 SCF Done:  E(RM062X) =  -1199.76668102     A.U. after   11 cycles
 SCF Done:  E(RM062X) =  -1199.76672802     A.U. after   11 cycles
 SCF Done:  E(RM062X) =  -1199.76679285     A.U. after   11 cycles
 SCF Done:  E(RM062X) =  -1199.76687497     A.U. after   11 cycles
 SCF Done:  E(RM062X) =  -1199.76697383     A.U. after   11 cycles
 SCF Done:  E(RM062X) =  -1199.76708892     A.U. after   11 cycles
 SCF Done:  E(RM062X) =  -1199.76721972     A.U. after   11 cycles
 SCF Done:  E(RM062X) =  -1199.76736573     A.U. after   11 cycles
 SCF Done:  E(RM062X) =  -1199.76752649     A.U. after   11 cycles
 SCF Done:  E(RM062X) =  -1199.82677544     A.U. after   10 cycles
 SCF Done:  E(RM062X) =  -1199.82817678     A.U. after   10 cycles
 SCF Done:  E(RM062X) =  -1199.82958782     A.U. after   10 cycles
 SCF Done:  E(RM062X) =  -1199.83100772     A.U. after   10 cycles
 SCF Done:  E(RM062X) =  -1199.83243563     A.U. after   10 cycles
 SCF Done:  E(RM062X) =  -1199.83387066     A.U. after   10 cycles
 SCF Done:  E(RM062X) =  -1199.83531193     A.U. after   10 cycles
 SCF Done:  E(RM062X) =  -1199.83675854     A.U. after   10 cycles
 SCF Done:  E(RM062X) =  -1199.83820957     A.U. after   10 cycles
 SCF Done:  E(RM062X) =  -1199.83966407     A.U. after   10 cycles

                          Input orientation:
 ---------------------------------------------------------------------
 Center     Atomic      Atomic             Coordinates (Angstroms)
 Number     Number       Type             X           Y           Z
 ---------------------------------------------------------------------
      1          6           0       -0.491076   -1.262610    0.206408
      2          6           0       -0.253467    1.331287   -0.333381
      3          9           0       -0.848830    1.358442   -1.505569
      4          9           0       -1.078796    1.877654    0.520046
      5         16           0        0.816927   -0.017958    0.136640
      6          8           0        1.207797    0.112628    1.497500
      7          8           0        1.589943   -0.454687   -0.984358
      8          8           0        1.274795    1.888827   -0.232744
      9          9           0       -1.065926   -1.384995   -0.988572
     10          9           0        0.007942   -2.412313    0.594417
     11          9           0       -1.435868   -0.854899    1.053308
     12          1           0        1.663166    1.899082   -1.121111
 ---------------------------------------------------------------------

 Normal termination of Gaussian 16 at Sat May 24 05:14:02 2025.
