 Gaussian 16, Revision C.01,
 Gaussian 16:  ES64L-G16RevC.01  3-Jul-2019

 ----------------------------------------------------------------------
 #P M062X/Def2TZVPP Symm(None) scf(xqc) pop(None) geom(AllCheck,NoKeepC
 onstants) guess(Read) irc(RCFC,forward,MaxPoints=100,StepSize=2)
 ----------------------------------------------------------------------

 Structure from the checkpoint file:  "2003846667223680600001_r12_insertion_R_8_5_6_IRC_F.chk"
 ------------------------------
 Gaussian input prepared by ASE
 ------------------------------
 Charge =  0 Multiplicity = 1

 SCF Done:  E(RM062X) =  -1199.81769892     A.U. after   11 cycles
 SCF Done:  E(RM062X) =  -1199.81784470     A.U. after   12 cycles
 SCF Done:  E(RM062X) =  -1199.81883031     A.U. after   12 cycles
 SCF Done:  E(RM062X) =  -1199.81977064     A.U. after   12 cycles
 SCF Done:  E(RM062X) =  -1199.82068059     A.U. after   11 cycles
 SCF Done:  E(RM062X) =  -1199.82156934     A.U. after   11 cycles
 SCF Done:  E(RM062X) =  -1199.82244266     A.U. after   11 cycles
 SCF Done:  E(RM062X) =  -1199.82330422     A.U. after   11 cycles
 SCF Done:  E(RM062X) =  -1199.82415642     A.U. after   11 cycles
 SCF Done:  E(RM062X) =  -1199.82500088     A.U. after   11 cycles
 SCF Done:  E(RM062X) =  -1199.88422187     A.U. after    9 cycles
 SCF Done:  E(RM062X) =  -1199.88486746     A.U. after    9 cycles
 SCF Done:  E(RM062X) =  -1199.88551088     A.U. after    9 cycles
 SCF Done:  E(RM062X) =  -1199.88615208     A.U. after    9 cycles
 SCF Done:  E(RM062X) =  -1199.88679105     A.U. after    9 cycles
 SCF Done:  E(RM062X) =  -1199.88742775     A.U. after    9 cycles
 SCF Done:  E(RM062X) =  -1199.88806214     A.U. after    9 cycles
 SCF Done:  E(RM062X) =  -1199.88869418     A.U. after    9 cycles
 SCF Done:  E(RM062X) =  -1199.88932386     A.U. after    9 cycles
 SCF Done:  E(RM062X) =  -1199.88995112     A.U. after    9 cycles

                          Input orientation:
 ---------------------------------------------------------------------
 Center     Atomic      Atomic             Coordinates (Angstroms)
 Number     Number       Type             X           Y           Z
 ---------------------------------------------------------------------
      1          6           0       -0.913839   -1.062302    0.085577
      2          6           0       -0.693839    0.511609   -0.122444
      3          9           0       -1.241595    0.840025   -1.282915
      4          9           0       -1.311204    1.160876    0.847202
      5         16           0        1.246443    0.657009   -0.000633
      6          8           0        1.301442    0.537053    1.413212
      7          8           0        1.493086   -0.286586   -1.050512
      8          8           0        2.373753    1.752501   -0.258127
      9          9           0       -0.834884   -1.690633   -1.071021
     10          9           0       -0.055050   -1.603069    0.927951
     11          9           0       -2.134143   -1.238445    0.576744
     12          1           0        2.705046    1.642079   -1.162262
 ---------------------------------------------------------------------

 Normal termination of Gaussian 16 at Sat May 24 05:25:37 2025.
