 Gaussian 16, Revision C.01,
 Gaussian 16:  ES64L-G16RevC.01  3-Jul-2019

 ------------------------------------------------------------------
 #P mp2/6-31G Symm(None) scf(xqc) pop(None) freq opt(CalcFC, Tight)
 ------------------------------------------------------------------

 ------------------------------
 Gaussian input prepared by ASE
 ------------------------------
 Symbolic Z-matrix:
 Charge =  0 Multiplicity = 1

 SCF Done:  E(RHF) =  -1194.89502240     A.U. after   14 cycles
 E2 =    -0.1231203178D+01 EUMP2 =    -0.11961262255742D+04
 E2 =    -0.1231203178D+01 EUMP2 =    -0.11961262255742D+04
 SCF Done:  E(RHF) =  -1194.95749616     A.U. after   15 cycles
 E2 =    -0.1256975063D+01 EUMP2 =    -0.11962144712258D+04
 SCF Done:  E(RHF) =  -1194.96139743     A.U. after   17 cycles
 E2 =    -0.1292121625D+01 EUMP2 =    -0.11962535190518D+04
 SCF Done:  E(RHF) =  -1194.96612396     A.U. after   15 cycles
 E2 =    -0.1288457161D+01 EUMP2 =    -0.11962545811222D+04
 SCF Done:  E(RHF) =  -1194.96860824     A.U. after   15 cycles
 E2 =    -0.1286624875D+01 EUMP2 =    -0.11962552331156D+04
 SCF Done:  E(RHF) =  -1194.96861287     A.U. after   15 cycles
 E2 =    -0.1286877468D+01 EUMP2 =    -0.11962554903360D+04
 SCF Done:  E(RHF) =  -1194.96779879     A.U. after   15 cycles
 E2 =    -0.1287808382D+01 EUMP2 =    -0.11962556071744D+04
 SCF Done:  E(RHF) =  -1194.96687942     A.U. after   14 cycles
 E2 =    -0.1288796369D+01 EUMP2 =    -0.11962556757916D+04
 SCF Done:  E(RHF) =  -1194.96663826     A.U. after   13 cycles
 E2 =    -0.1289047902D+01 EUMP2 =    -0.11962556861598D+04
 SCF Done:  E(RHF) =  -1194.96649985     A.U. after   13 cycles
 E2 =    -0.1289196202D+01 EUMP2 =    -0.11962556960525D+04
 E2 =    -0.1289154991D+01 EUMP2 =    -0.11962557082128D+04
 E2 =    -0.1289136595D+01 EUMP2 =    -0.11962557148663D+04
 E2 =    -0.1289056661D+01 EUMP2 =    -0.11962557158806D+04
 E2 =    -0.1288988633D+01 EUMP2 =    -0.11962557217039D+04
 E2 =    -0.1288599136D+01 EUMP2 =    -0.11962557944820D+04
 E2 =    -0.1287857205D+01 EUMP2 =    -0.11962559854503D+04
 E2 =    -0.1286832714D+01 EUMP2 =    -0.11962560902493D+04
 E2 =    -0.1288633035D+01 EUMP2 =    -0.11962533252888D+04
 E2 =    -0.1287903848D+01 EUMP2 =    -0.11962562498143D+04
 E2 =    -0.1288797065D+01 EUMP2 =    -0.11962555379084D+04
 E2 =    -0.1288457430D+01 EUMP2 =    -0.11962563390372D+04
 E2 =    -0.1288621232D+01 EUMP2 =    -0.11962564250997D+04
 E2 =    -0.1289790549D+01 EUMP2 =    -0.11962565997033D+04
 E2 =    -0.1290207878D+01 EUMP2 =    -0.11962566703621D+04
 SCF Done:  E(RHF) =  -1194.96608209     A.U. after   13 cycles
 E2 =    -0.1290611435D+01 EUMP2 =    -0.11962566935243D+04
 SCF Done:  E(RHF) =  -1194.96609018     A.U. after   14 cycles
 E2 =    -0.1290612742D+01 EUMP2 =    -0.11962567029201D+04
 SCF Done:  E(RHF) =  -1194.96610071     A.U. after   12 cycles
 E2 =    -0.1290602831D+01 EUMP2 =    -0.11962567035360D+04
 SCF Done:  E(RHF) =  -1194.96613800     A.U. after   10 cycles
 E2 =    -0.1290565765D+01 EUMP2 =    -0.11962567037663D+04
 SCF Done:  E(RHF) =  -1194.96615902     A.U. after   10 cycles
 E2 =    -0.1290544853D+01 EUMP2 =    -0.11962567038693D+04
 SCF Done:  E(RHF) =  -1194.96616147     A.U. after    9 cycles
 E2 =    -0.1290542403D+01 EUMP2 =    -0.11962567038758D+04
 SCF Done:  E(RHF) =  -1194.96616007     A.U. after    8 cycles
 E2 =    -0.1290543811D+01 EUMP2 =    -0.11962567038809D+04
 SCF Done:  E(RHF) =  -1194.96615811     A.U. after    8 cycles
 E2 =    -0.1290545772D+01 EUMP2 =    -0.11962567038792D+04
 SCF Done:  E(RHF) =  -1194.96615918     A.U. after    8 cycles
 E2 =    -0.1290544704D+01 EUMP2 =    -0.11962567038805D+04
 Optimization completed.
    -- Stationary point found.
 Normal termination of Gaussian 16 at Fri May 23 23:36:57 2025.

 -------------------------------------------------------------------
 #P Geom=AllCheck Guess=TCheck SCRF=Check GenChk RMP2(FC)/6-31G Freq
 -------------------------------------------------------------------

 Structure from the checkpoint file:  "2003846667223680600001_well_mp2.chk"
 ------------------------------
 Gaussian input prepared by ASE
 ------------------------------
 Charge =  0 Multiplicity = 1

                          Input orientation:
 ---------------------------------------------------------------------
 Center     Atomic      Atomic             Coordinates (Angstroms)
 Number     Number       Type             X           Y           Z
 ---------------------------------------------------------------------
      1          6           0        1.543560    0.228540    0.074489
      2          6           0        0.407864   -0.645592   -0.487750
      3          9           0        0.299647   -0.500947   -1.863060
      4          9           0        0.643508   -1.980811   -0.148477
      5         16           0       -1.436576   -0.329616    0.226269
      6          8           0       -2.492742   -0.761099   -0.884287
      7          8           0       -1.556016   -0.863689    1.720676
      8          8           0       -1.154090    1.463057    0.183220
      9          9           0        1.565074    1.479997   -0.514114
     10          9           0        1.399149    0.358282    1.452234
     11          9           0        2.762958   -0.400733   -0.185874
     12          1           0       -1.982338    1.952609    0.426676
 ---------------------------------------------------------------------

 SCF Done:  E(RHF) =  -1194.96615918     A.U. after    1 cycles
 E2 =    -0.1290544703D+01 EUMP2 =    -0.11962567038795D+04
 E2 =    -0.1290544703D+01 EUMP2 =    -0.11962567038795D+04

                      1                      2                      3
                      A                      A                      A
 Frequencies --     39.1825                64.7490               126.8471
 Red. masses --     12.6868                18.3317                 6.8591
 Frc consts  --      0.0115                 0.0453                 0.0650
 IR Inten    --      0.8073                 0.0761                18.4004

                      4                      5                      6
                      A                      A                      A
 Frequencies --    144.6702               158.5079               190.0171
 Red. masses --      2.3553                 4.5676                 3.7626
 Frc consts  --      0.0290                 0.0676                 0.0800
 IR Inten    --     43.3718                14.0359                26.3381

                      7                      8                      9
                      A                      A                      A
 Frequencies --    216.7236               221.5167               272.2209
 Red. masses --     13.8072                14.4578                 7.5626
 Frc consts  --      0.3821                 0.4180                 0.3302
 IR Inten    --      9.1933                 4.5221                23.9250

                     10                     11                     12
                      A                      A                      A
 Frequencies --    291.5863               340.2201               353.8191
 Red. masses --     16.1319                16.6496                11.7427
 Frc consts  --      0.8081                 1.1355                 0.8661
 IR Inten    --      2.3311                 7.1366                50.2695

                     13                     14                     15
                      A                      A                      A
 Frequencies --    373.6797               416.7758               450.7144
 Red. masses --     12.9030                17.4636                14.3162
 Frc consts  --      1.0616                 1.7873                 1.7135
 IR Inten    --     13.0981                 1.3130               103.3790

                     16                     17                     18
                      A                      A                      A
 Frequencies --    494.9066               556.0881               580.0220
 Red. masses --     16.3341                17.6309                16.8641
 Frc consts  --      2.3572                 3.2123                 3.3427
 IR Inten    --     11.5154                 4.4441                34.1462

                     19                     20                     21
                      A                      A                      A
 Frequencies --    625.0649               689.5326               901.3392
 Red. masses --     18.1965                16.9700                12.0366
 Frc consts  --      4.1888                 4.7538                 5.7615
 IR Inten    --    134.4792                33.7305               128.8803

                     22                     23                     24
                      A                      A                      A
 Frequencies --    979.7811              1084.1363              1097.4733
 Red. masses --      8.3337                13.6780                 1.2908
 Frc consts  --      4.7135                 9.4720                 0.9160
 IR Inten    --     51.4560               120.7219               119.3304

                     25                     26                     27
                      A                      A                      A
 Frequencies --   1125.5401              1187.7098              1188.5774
 Red. masses --     17.8687                11.2931                11.3936
 Frc consts  --     13.3373                 9.3861                 9.4834
 IR Inten    --    128.3591               161.5668               154.2629

                     28                     29                     30
                      A                      A                      A
 Frequencies --   1227.1303              1303.0713              3530.7242
 Red. masses --     13.0450                12.3410                 1.0663
 Frc consts  --     11.5738                12.3463                 7.8319
 IR Inten    --    181.8441               167.9977               102.2450

 - Thermochemistry -
 -------------------
 Temperature   298.150 Kelvin.  Pressure   1.00000 Atm.
 Atom     1 has atomic number  6 and mass  12.00000

 Molecular mass:   199.95666 amu.
 Principal axes and moments of inertia in atomic units:
                           1         2         3
     Eigenvalues --  1276.866052381.675882497.38945
           X            0.98816  -0.07056   0.13621
           Y            0.14135   0.76382  -0.62977
           Z           -0.05960   0.64157   0.76475
 This molecule is an asymmetric top.
 Rotational symmetry number  1.
 Warning -- assumption of classical behavior for rotation
           may cause significant error
 Rotational temperatures (Kelvin)      0.06783     0.03637     0.03468
 Rotational constants (GHZ):           1.41341     0.75776     0.72265
 Zero-point vibrational energy     121016.2 (Joules/Mol)
                                   28.92356 (Kcal/Mol)
 Warning -- explicit consideration of  18 degrees of freedom as
           vibrations may cause significant error
 Vibrational temperatures:     56.37    93.16   182.50   208.15   228.06
          (Kelvin)            273.39   311.82   318.71   391.67   419.53
                              489.50   509.07   537.64   599.65   648.48
                              712.06   800.09   834.52   899.33   992.08
                             1296.83  1409.69  1559.83  1579.02  1619.40
                             1708.85  1710.10  1765.57  1874.83  5079.92

 Zero-point correction=                           0.046093 (Hartree/Particle)
 Thermal correction to Energy=                    0.057779
 Thermal correction to Enthalpy=                  0.058723
 Thermal correction to Gibbs Free Energy=         0.007683
 Sum of electronic and zero-point Energies=          -1196.210611
 Sum of electronic and thermal Energies=             -1196.198925
 Sum of electronic and thermal Enthalpies=           -1196.197981
 Sum of electronic and thermal Free Energies=        -1196.249020

                     E (Thermal)             CV                S
                      KCal/Mol        Cal/Mol-Kelvin    Cal/Mol-Kelvin
 Total                   36.257             39.798            107.421
 Electronic               0.000              0.000              0.000
 Translational            0.889              2.981             41.783
 Rotational               0.889              2.981             30.408
 Vibrational             34.479             33.837             35.230
 Vibration     1          0.594              1.981              5.300
 Vibration     2          0.597              1.971              4.307
 Vibration     3          0.611              1.926              2.993
 Vibration     4          0.616              1.908              2.741
 Vibration     5          0.621              1.893              2.568
 Vibration     6          0.633              1.854              2.228
 Vibration     7          0.646              1.816              1.986
 Vibration     8          0.648              1.808              1.947
 Vibration     9          0.675              1.724              1.582
 Vibration    10          0.687              1.689              1.465
 Vibration    11          0.720              1.595              1.211
 Vibration    12          0.730              1.567              1.149
 Vibration    13          0.745              1.526              1.065
 Vibration    14          0.780              1.434              0.903
 Vibration    15          0.809              1.359              0.794
 Vibration    16          0.851              1.261              0.671
 Vibration    17          0.912              1.126              0.532
 Vibration    18          0.937              1.075              0.485

 Optimization completed.
    -- Stationary point found.
 Normal termination of Gaussian 16 at Fri May 23 23:37:29 2025.
