 Gaussian 16, Revision C.01,
 Gaussian 16:  ES64L-G16RevC.01  3-Jul-2019

 -----------------------------------------------------------------
 #P M062X/Def2TZVPP Symm(None) scf(xqc) pop(None) freq opt(CalcFC)
 -----------------------------------------------------------------

 ------------------------------
 Gaussian input prepared by ASE
 ------------------------------
 Symbolic Z-matrix:
 Charge =  0 Multiplicity = 1

 SCF Done:  E(RM062X) =  -1199.93449523     A.U. after   13 cycles
 SCF Done:  E(RM062X) =  -1199.93989557     A.U. after   12 cycles
 SCF Done:  E(RM062X) =  -1199.94044562     A.U. after   12 cycles
 SCF Done:  E(RM062X) =  -1199.94061521     A.U. after   12 cycles
 SCF Done:  E(RM062X) =  -1199.94066266     A.U. after   11 cycles
 SCF Done:  E(RM062X) =  -1199.94067528     A.U. after   10 cycles
 SCF Done:  E(RM062X) =  -1199.94067604     A.U. after    9 cycles
 SCF Done:  E(RM062X) =  -1199.94067627     A.U. after    8 cycles
 Optimization completed.
    -- Stationary point found.
 Normal termination of Gaussian 16 at Sat May 24 05:14:51 2025.

 ---------------------------------------------------------------------
 #P Geom=AllCheck Guess=TCheck SCRF=Check GenChk RM062X/def2TZVPP Freq
 ---------------------------------------------------------------------

 Structure from the checkpoint file:  "2003846667223680600001_r12_insertion_R_12_8_5_IRC_R_prod.chk"
 ------------------------------
 Gaussian input prepared by ASE
 ------------------------------
 Charge =  0 Multiplicity = 1

                          Input orientation:
 ---------------------------------------------------------------------
 Center     Atomic      Atomic             Coordinates (Angstroms)
 Number     Number       Type             X           Y           Z
 ---------------------------------------------------------------------
      1          6           0       -1.101225   -0.965667   -0.002549
      2          6           0       -0.450076    0.436085   -0.027391
      3          9           0       -0.763754    1.030383   -1.185344
      4          9           0       -0.933976    1.155278    0.981418
      5         16           0        1.388105    0.404098    0.104964
      6          8           0        1.720155    0.128725    1.448387
      7          8           0        1.869842   -0.348332   -0.997606
      8          8           0        1.665257    1.931068   -0.144343
      9          9           0       -0.764110   -1.652283   -1.079700
     10          9           0       -0.718472   -1.625820    1.078193
     11          9           0       -2.418508   -0.820859    0.021237
     12          1           0        1.766132    2.103632   -1.091742
 ---------------------------------------------------------------------

 SCF Done:  E(RM062X) =  -1199.94067627     A.U. after    1 cycles

 Isotropic polarizability for W=    0.000000       53.49 Bohr**3.
 End of Minotr F.D. properties file   721 does not exist.

                      1                      2                      3
                      A                      A                      A
 Frequencies --     19.8256                68.1618               127.9853
 Red. masses --     14.5602                13.9491                14.4809
 Frc consts  --      0.0034                 0.0382                 0.1398
 IR Inten    --      1.2880                 0.9545                 1.4415

                      4                      5                      6
                      A                      A                      A
 Frequencies --    192.3544               221.2873               237.5490
 Red. masses --      9.3500                16.8886                 7.8156
 Frc consts  --      0.2038                 0.4873                 0.2598
 IR Inten    --      7.9075                 1.6117                11.7241

                      7                      8                      9
                      A                      A                      A
 Frequencies --    283.5511               317.4169               323.4885
 Red. masses --     13.6190                 5.1007                17.7481
 Frc consts  --      0.6451                 0.3028                 1.0943
 IR Inten    --      0.3342                16.0152                 0.0421

                     10                     11                     12
                      A                      A                      A
 Frequencies --    364.1766               376.1646               445.8415
 Red. masses --      1.8347                15.9306                 4.8342
 Frc consts  --      0.1434                 1.3281                 0.5662
 IR Inten    --     54.1486                 1.0066                21.9860

                     13                     14                     15
                      A                      A                      A
 Frequencies --    499.8344               506.9255               543.7695
 Red. masses --      7.4979                14.4994                17.7539
 Frc consts  --      1.1037                 2.1953                 3.0929
 IR Inten    --      7.2366                33.4880                25.3547

                     16                     17                     18
                      A                      A                      A
 Frequencies --    608.9122               630.5031               664.0182
 Red. masses --     17.1514                19.4437                17.6254
 Frc consts  --      3.7468                 4.5541                 4.5788
 IR Inten    --      3.6715               110.9527                46.7697

                     19                     20                     21
                      A                      A                      A
 Frequencies --    781.7006               897.9344              1041.1471
 Red. masses --     17.3590                16.5450                14.0191
 Frc consts  --      6.2496                 7.8597                 8.9536
 IR Inten    --     19.4592               228.0197                28.7690

                     22                     23                     24
                      A                      A                      A
 Frequencies --   1141.7203              1200.6943              1256.2245
 Red. masses --      1.1812                13.6120                15.8880
 Frc consts  --      0.9072                11.5621                14.7725
 IR Inten    --     93.8193               246.3394                16.5230

                     25                     26                     27
                      A                      A                      A
 Frequencies --   1263.5942              1301.9260              1305.1564
 Red. masses --     13.3523                13.8626                13.2001
 Frc consts  --     12.5609                13.8441                13.2481
 IR Inten    --     90.5360               321.1225               233.8598

                     28                     29                     30
                      A                      A                      A
 Frequencies --   1388.8639              1503.4074              3809.1841
 Red. masses --     12.6870                15.4291                 1.0657
 Frc consts  --     14.4188                20.5468                 9.1103
 IR Inten    --     91.9247               296.3580               188.1974

 - Thermochemistry -
 -------------------
 Temperature   298.150 Kelvin.  Pressure   1.00000 Atm.
 Atom     1 has atomic number  6 and mass  12.00000

 Molecular mass:   199.95666 amu.
 Principal axes and moments of inertia in atomic units:
                           1         2         3
     Eigenvalues --  1118.729392148.449622266.86663
           X            0.86513  -0.49694  -0.06785
           Y            0.50087   0.86305   0.06535
           Z            0.02608  -0.09052   0.99555
 This molecule is an asymmetric top.
 Rotational symmetry number  1.
 Warning -- assumption of classical behavior for rotation
           may cause significant error
 Rotational temperatures (Kelvin)      0.07742     0.04031     0.03821
 Rotational constants (GHZ):           1.61321     0.84002     0.79614
 Zero-point vibrational energy     139504.4 (Joules/Mol)
                                   33.34236 (Kcal/Mol)
 Warning -- explicit consideration of  16 degrees of freedom as
           vibrations may cause significant error
 Vibrational temperatures:     28.52    98.07   184.14   276.76   318.38
          (Kelvin)            341.78   407.97   456.69   465.43   523.97
                              541.22   641.47   719.15   729.35   782.36
                              876.09   907.15   955.37  1124.69  1291.93
                             1497.98  1642.68  1727.53  1807.43  1818.03
                             1873.18  1877.83  1998.27  2163.07  5480.57

 Zero-point correction=                           0.053134 (Hartree/Particle)
 Thermal correction to Energy=                    0.063462
 Thermal correction to Enthalpy=                  0.064406
 Thermal correction to Gibbs Free Energy=         0.015709
 Sum of electronic and zero-point Energies=          -1199.887542
 Sum of electronic and thermal Energies=             -1199.877214
 Sum of electronic and thermal Enthalpies=           -1199.876270
 Sum of electronic and thermal Free Energies=        -1199.924968

                     E (Thermal)             CV                S
                      KCal/Mol        Cal/Mol-Kelvin    Cal/Mol-Kelvin
 Total                   39.823             35.996            102.493
 Electronic               0.000              0.000              0.000
 Translational            0.889              2.981             41.783
 Rotational               0.889              2.981             30.078
 Vibrational             38.046             30.035             30.632
 Vibration     1          0.593              1.986              6.652
 Vibration     2          0.598              1.969              4.206
 Vibration     3          0.611              1.925              2.976
 Vibration     4          0.634              1.850              2.205
 Vibration     5          0.648              1.809              1.949
 Vibration     6          0.656              1.783              1.821
 Vibration     7          0.682              1.704              1.512
 Vibration     8          0.704              1.640              1.323
 Vibration     9          0.708              1.628              1.292
 Vibration    10          0.738              1.546              1.104
 Vibration    11          0.747              1.521              1.055
 Vibration    12          0.805              1.370              0.808
 Vibration    13          0.855              1.250              0.659
 Vibration    14          0.862              1.235              0.641
 Vibration    15          0.899              1.153              0.557
 Vibration    16          0.968              1.013              0.435

 Optimization completed.
    -- Stationary point found.
 Normal termination of Gaussian 16 at Sat May 24 05:19:08 2025.
