 Gaussian 16, Revision C.01,
 Gaussian 16:  ES64L-G16RevC.01  3-Jul-2019

 ----------------------------------------------------------------------
 #P M062X/Def2TZVPP Symm(None) scf(xqc) pop(None) geom(AllCheck,NoKeepC
 onstants) guess(Read) irc(RCFC,reverse,MaxPoints=100,StepSize=2)
 ----------------------------------------------------------------------

 Structure from the checkpoint file:  "2003846667223680600001_r12_insertion_R_6_5_2_IRC_R.chk"
 ------------------------------
 Gaussian input prepared by ASE
 ------------------------------
 Charge =  0 Multiplicity = 1

 SCF Done:  E(RM062X) =  -1199.93649649     A.U. after    7 cycles

                          Input orientation:
 ---------------------------------------------------------------------
 Center     Atomic      Atomic             Coordinates (Angstroms)
 Number     Number       Type             X           Y           Z
 ---------------------------------------------------------------------
      1          6           0       -1.161573   -0.944241    0.022987
      2          6           0       -0.446367    0.434690   -0.221815
      3          9           0       -0.544966    0.771224   -1.511432
      4          9           0       -1.024540    1.378844    0.513479
      5         16           0        1.348305    0.400004    0.193678
      6          8           0        1.457481    0.276904    1.595854
      7          8           0        1.977441   -0.471409   -0.733395
      8          8           0        1.700662    1.886772   -0.178393
      9          9           0       -1.683533   -1.386896   -1.107868
     10          9           0       -0.302099   -1.846035    0.475523
     11          9           0       -2.126870   -0.796124    0.912621
     12          1           0        1.977539    1.940579   -1.104562
 ---------------------------------------------------------------------

 Normal termination of Gaussian 16 at Sat May 24 04:06:52 2025.
