 Gaussian 16, Revision C.01,
 Gaussian 16:  ES64L-G16RevC.01  3-Jul-2019

 -----------------------------------------------------------------
 #P M062X/Def2TZVPP Symm(None) scf(xqc) pop(None) freq opt(CalcFC)
 -----------------------------------------------------------------

 ------------------------------
 Gaussian input prepared by ASE
 ------------------------------
 Symbolic Z-matrix:
 Charge =  0 Multiplicity = 1

 SCF Done:  E(RM062X) =  -1199.93451222     A.U. after   13 cycles
 SCF Done:  E(RM062X) =  -1199.93989879     A.U. after   12 cycles
 SCF Done:  E(RM062X) =  -1199.94044463     A.U. after   12 cycles
 SCF Done:  E(RM062X) =  -1199.94061148     A.U. after   12 cycles
 SCF Done:  E(RM062X) =  -1199.94065378     A.U. after   10 cycles
 SCF Done:  E(RM062X) =  -1199.94066971     A.U. after   11 cycles
 SCF Done:  E(RM062X) =  -1199.94067131     A.U. after    8 cycles
 SCF Done:  E(RM062X) =  -1199.94067142     A.U. after    8 cycles
 Optimization completed.
    -- Stationary point found.
 Normal termination of Gaussian 16 at Sat May 24 06:46:21 2025.

 ---------------------------------------------------------------------
 #P Geom=AllCheck Guess=TCheck SCRF=Check GenChk RM062X/def2TZVPP Freq
 ---------------------------------------------------------------------

 Structure from the checkpoint file:  "2003846667223680600001_intra_H_migration_6_12_IRC_R_prod.chk"
 ------------------------------
 Gaussian input prepared by ASE
 ------------------------------
 Charge =  0 Multiplicity = 1

                          Input orientation:
 ---------------------------------------------------------------------
 Center     Atomic      Atomic             Coordinates (Angstroms)
 Number     Number       Type             X           Y           Z
 ---------------------------------------------------------------------
      1          6           0        0.910153   -0.812190   -0.811335
      2          6           0        0.142595    0.463955   -0.396789
      3          9           0        1.015496    1.447923   -0.199327
      4          9           0       -0.688576    0.802080   -1.390342
      5         16           0       -0.866442    0.261290    1.132358
      6          8           0       -1.800796   -0.776131    0.878367
      7          8           0        0.013541    0.272362    2.235251
      8          8           0       -1.606433    1.647861    1.107164
      9          9           0        1.656245   -1.240791    0.193611
     10          9           0        0.067236   -1.763976   -1.170337
     11          9           0        1.693577   -0.520221   -1.839833
     12          1           0       -2.425626    1.581791    0.595222
 ---------------------------------------------------------------------

 SCF Done:  E(RM062X) =  -1199.94067142     A.U. after    1 cycles

 Isotropic polarizability for W=    0.000000       53.46 Bohr**3.
 End of Minotr F.D. properties file   721 does not exist.

                      1                      2                      3
                      A                      A                      A
 Frequencies --     21.9803                68.0168               127.4793
 Red. masses --     14.3876                14.0078                14.3167
 Frc consts  --      0.0041                 0.0382                 0.1371
 IR Inten    --      1.3545                 0.9540                 1.4540

                      4                      5                      6
                      A                      A                      A
 Frequencies --    191.4057               221.0164               237.0032
 Red. masses --      8.5907                16.7457                 7.4336
 Frc consts  --      0.1854                 0.4820                 0.2460
 IR Inten    --      8.9396                 1.7814                12.6089

                      7                      8                      9
                      A                      A                      A
 Frequencies --    283.4575               315.6160               323.3459
 Red. masses --     13.2092                 4.3219                17.8345
 Frc consts  --      0.6253                 0.2537                 1.0986
 IR Inten    --      0.2442                20.4233                 0.0449

                     10                     11                     12
                      A                      A                      A
 Frequencies --    358.4088               376.0002               444.4360
 Red. masses --      1.9440                17.2900                 5.1827
 Frc consts  --      0.1471                 1.4402                 0.6031
 IR Inten    --     51.0986                 0.4321                20.4472

                     13                     14                     15
                      A                      A                      A
 Frequencies --    498.9166               506.9071               543.9933
 Red. masses --      7.8693                14.2499                17.7783
 Frc consts  --      1.1541                 2.1573                 3.0998
 IR Inten    --      6.0337                33.9530                25.2248

                     16                     17                     18
                      A                      A                      A
 Frequencies --    608.9063               630.7191               664.1221
 Red. masses --     17.1577                19.4456                17.6151
 Frc consts  --      3.7481                 4.5577                 4.5775
 IR Inten    --      3.6686               111.2036                46.7631

                     19                     20                     21
                      A                      A                      A
 Frequencies --    781.7187               896.8123              1040.6537
 Red. masses --     17.3590                16.5584                14.0060
 Frc consts  --      6.2499                 7.8464                 8.9367
 IR Inten    --     19.4601               227.2226                29.2516

                     22                     23                     24
                      A                      A                      A
 Frequencies --   1140.9183              1201.1180              1256.2327
 Red. masses --      1.1818                13.6133                15.9171
 Frc consts  --      0.9064                11.5714                14.7997
 IR Inten    --     93.9313               246.3683                14.8103

                     25                     26                     27
                      A                      A                      A
 Frequencies --   1263.9942              1301.5717              1305.1794
 Red. masses --     13.3315                13.8732                13.2012
 Frc consts  --     12.5493                13.8473                13.2497
 IR Inten    --     90.3615               322.1988               235.3704

                     28                     29                     30
                      A                      A                      A
 Frequencies --   1389.4586              1503.3509              3806.5252
 Red. masses --     12.6908                15.4363                 1.0656
 Frc consts  --     14.4354                20.5548                 9.0975
 IR Inten    --     90.5001               297.2354               188.5345

 - Thermochemistry -
 -------------------
 Temperature   298.150 Kelvin.  Pressure   1.00000 Atm.
 Atom     1 has atomic number  6 and mass  12.00000

 Molecular mass:   199.95666 amu.
 Principal axes and moments of inertia in atomic units:
                           1         2         3
     Eigenvalues --  1118.661792148.736932267.13345
           X           -0.63209   0.01633   0.77472
           Y            0.39438   0.86739   0.30349
           Z            0.66702  -0.49737   0.55471
 This molecule is an asymmetric top.
 Rotational symmetry number  1.
 Warning -- assumption of classical behavior for rotation
           may cause significant error
 Rotational temperatures (Kelvin)      0.07743     0.04031     0.03820
 Rotational constants (GHZ):           1.61330     0.83991     0.79605
 Zero-point vibrational energy     139420.4 (Joules/Mol)
                                   33.32227 (Kcal/Mol)
 Warning -- explicit consideration of  16 degrees of freedom as
           vibrations may cause significant error
 Vibrational temperatures:     31.62    97.86   183.41   275.39   317.99
          (Kelvin)            340.99   407.83   454.10   465.22   515.67
                              540.98   639.44   717.83   729.33   782.69
                              876.08   907.46   955.52  1124.72  1290.31
                             1497.27  1641.53  1728.14  1807.44  1818.61
                             1872.67  1877.86  1999.12  2162.99  5476.74

 Zero-point correction=                           0.053102 (Hartree/Particle)
 Thermal correction to Energy=                    0.063440
 Thermal correction to Enthalpy=                  0.064384
 Thermal correction to Gibbs Free Energy=         0.015751
 Sum of electronic and zero-point Energies=          -1199.887569
 Sum of electronic and thermal Energies=             -1199.877231
 Sum of electronic and thermal Enthalpies=           -1199.876287
 Sum of electronic and thermal Free Energies=        -1199.924921

                     E (Thermal)             CV                S
                      KCal/Mol        Cal/Mol-Kelvin    Cal/Mol-Kelvin
 Total                   39.809             36.022            102.359
 Electronic               0.000              0.000              0.000
 Translational            0.889              2.981             41.783
 Rotational               0.889              2.981             30.078
 Vibrational             38.032             30.060             30.497
 Vibration     1          0.593              1.985              6.447
 Vibration     2          0.598              1.969              4.210
 Vibration     3          0.611              1.926              2.984
 Vibration     4          0.634              1.852              2.214
 Vibration     5          0.648              1.809              1.951
 Vibration     6          0.656              1.784              1.825
 Vibration     7          0.682              1.704              1.513
 Vibration     8          0.703              1.644              1.333
 Vibration     9          0.708              1.629              1.293
 Vibration    10          0.733              1.558              1.129
 Vibration    11          0.747              1.521              1.055
 Vibration    12          0.804              1.373              0.813
 Vibration    13          0.854              1.252              0.661
 Vibration    14          0.862              1.235              0.641
 Vibration    15          0.899              1.153              0.557
 Vibration    16          0.968              1.013              0.435

 Optimization completed.
    -- Stationary point found.
 Normal termination of Gaussian 16 at Sat May 24 06:51:47 2025.
