 Gaussian 16, Revision C.01,
 Gaussian 16:  ES64L-G16RevC.01  3-Jul-2019

 ----------------------------------------------------------------------
 #P M062X/Def2TZVPP Symm(None) scf(xqc) pop(None) geom(AllCheck,NoKeepC
 onstants) guess(Read) irc(RCFC,reverse,MaxPoints=100,StepSize=2)
 ----------------------------------------------------------------------

 Structure from the checkpoint file:  "2003846667223680600001_r12_insertion_R_1_2_3_IRC_R.chk"
 ------------------------------
 Gaussian input prepared by ASE
 ------------------------------
 Charge =  0 Multiplicity = 1

 SCF Done:  E(RM062X) =  -1199.81153616     A.U. after    9 cycles
 SCF Done:  E(RM062X) =  -1199.81158853     A.U. after   10 cycles
 SCF Done:  E(RM062X) =  -1199.81167563     A.U. after   10 cycles
 SCF Done:  E(RM062X) =  -1199.81179710     A.U. after   10 cycles
 SCF Done:  E(RM062X) =  -1199.81195244     A.U. after   10 cycles
 SCF Done:  E(RM062X) =  -1199.81214105     A.U. after   10 cycles
 SCF Done:  E(RM062X) =  -1199.81236224     A.U. after   10 cycles
 SCF Done:  E(RM062X) =  -1199.81261520     A.U. after   10 cycles
 SCF Done:  E(RM062X) =  -1199.81289910     A.U. after   10 cycles
 SCF Done:  E(RM062X) =  -1199.81321296     A.U. after   10 cycles
 SCF Done:  E(RM062X) =  -1199.84387813     A.U. after   11 cycles
 SCF Done:  E(RM062X) =  -1199.84409872     A.U. after   11 cycles
 SCF Done:  E(RM062X) =  -1199.84432460     A.U. after   10 cycles
 SCF Done:  E(RM062X) =  -1199.84455667     A.U. after   10 cycles
 SCF Done:  E(RM062X) =  -1199.84479572     A.U. after   10 cycles
 SCF Done:  E(RM062X) =  -1199.84504270     A.U. after   10 cycles
 SCF Done:  E(RM062X) =  -1199.84529850     A.U. after   10 cycles
 SCF Done:  E(RM062X) =  -1199.84556417     A.U. after   10 cycles
 SCF Done:  E(RM062X) =  -1199.84584075     A.U. after   10 cycles
 SCF Done:  E(RM062X) =  -1199.84612943     A.U. after   10 cycles

                          Input orientation:
 ---------------------------------------------------------------------
 Center     Atomic      Atomic             Coordinates (Angstroms)
 Number     Number       Type             X           Y           Z
 ---------------------------------------------------------------------
      1          6           0       -1.260420   -0.843275   -0.117156
      2          6           0       -0.350844    0.313411    0.330829
      3          9           0       -0.659580    1.318065   -1.466682
      4          9           0       -0.904555    1.088893    1.148271
      5         16           0        1.547651    0.310160    0.222035
      6          8           0        1.892912    0.519344    1.585560
      7          8           0        1.783315   -0.962914   -0.363751
      8          8           0        1.651765    1.463596   -0.658805
      9          9           0       -0.862977   -1.364315   -1.245369
     10          9           0       -1.149357   -1.730340    0.868325
     11          9           0       -2.511567   -0.440111   -0.211268
     12          1           0        0.294931    1.540370   -1.427240
 ---------------------------------------------------------------------

 Normal termination of Gaussian 16 at Sat May 24 05:47:56 2025.
