 Gaussian 16, Revision C.01,
 Gaussian 16:  ES64L-G16RevC.01  3-Jul-2019

 -----------------------------------------------------------------
 #P M062X/Def2TZVPP Symm(None) scf(xqc) pop(None) freq opt(CalcFC)
 -----------------------------------------------------------------

 ------------------------------
 Gaussian input prepared by ASE
 ------------------------------
 Symbolic Z-matrix:
 Charge =  0 Multiplicity = 1

 SCF Done:  E(RM062X) =  -1199.82412847     A.U. after   15 cycles
 SCF Done:  E(RM062X) =  -1199.82719895     A.U. after   13 cycles
 SCF Done:  E(RM062X) =  -1199.82659608     A.U. after   16 cycles
 SCF Done:  E(RM062X) =  -1199.82793757     A.U. after   13 cycles
 SCF Done:  E(RM062X) =  -1199.82806220     A.U. after   12 cycles
 SCF Done:  E(RM062X) =  -1199.82808925     A.U. after   12 cycles
 SCF Done:  E(RM062X) =  -1199.82811447     A.U. after   12 cycles
 SCF Done:  E(RM062X) =  -1199.82812355     A.U. after   12 cycles
 SCF Done:  E(RM062X) =  -1199.82812577     A.U. after   12 cycles
 SCF Done:  E(RM062X) =  -1199.82812737     A.U. after   10 cycles
 SCF Done:  E(RM062X) =  -1199.82812820     A.U. after    9 cycles
 SCF Done:  E(RM062X) =  -1199.82812903     A.U. after   11 cycles
 SCF Done:  E(RM062X) =  -1199.82812912     A.U. after    9 cycles
 SCF Done:  E(RM062X) =  -1199.82812919     A.U. after    9 cycles
 SCF Done:  E(RM062X) =  -1199.82812922     A.U. after    8 cycles
 SCF Done:  E(RM062X) =  -1199.82812923     A.U. after    8 cycles
 Optimization completed.
    -- Stationary point found.
 Normal termination of Gaussian 16 at Sat May 24 05:30:03 2025.

 ---------------------------------------------------------------------
 #P Geom=AllCheck Guess=TCheck SCRF=Check GenChk RM062X/def2TZVPP Freq
 ---------------------------------------------------------------------

 Structure from the checkpoint file:  "2003846667223680600001_r12_insertion_R_5_2_3_IRC_R_prod.chk"
 ------------------------------
 Gaussian input prepared by ASE
 ------------------------------
 Charge =  0 Multiplicity = 1

                          Input orientation:
 ---------------------------------------------------------------------
 Center     Atomic      Atomic             Coordinates (Angstroms)
 Number     Number       Type             X           Y           Z
 ---------------------------------------------------------------------
      1          6           0       -1.649063   -1.226448    0.212152
      2          6           0       -0.720524   -0.610733    1.301768
      3          9           0        0.289165    0.833662   -0.708796
      4          9           0       -1.392248    0.374448    1.782271
      5         16           0        1.812858    0.903016   -0.362876
      6          8           0        1.894783    1.588659    0.866622
      7          8           0        2.337234   -0.374174   -0.603004
      8          8           0        2.265022    1.836936   -1.525529
      9          9           0       -0.928929   -1.838938   -0.711339
     10          9           0       -2.396136   -2.130787    0.853006
     11          9           0       -2.456446   -0.355277   -0.385024
     12          1           0        2.179313    2.764900   -1.264114
 ---------------------------------------------------------------------

 SCF Done:  E(RM062X) =  -1199.82812923     A.U. after    1 cycles

 Isotropic polarizability for W=    0.000000       54.45 Bohr**3.
 End of Minotr F.D. properties file   721 does not exist.

                      1                      2                      3
                      A                      A                      A
 Frequencies --     18.6428                25.0943                31.7662
 Red. masses --     16.5400                13.1388                12.6809
 Frc consts  --      0.0034                 0.0049                 0.0075
 IR Inten    --      0.2277                 1.3719                 1.6224

                      4                      5                      6
                      A                      A                      A
 Frequencies --     50.6231                67.6096                69.2601
 Red. masses --     17.0578                14.8670                16.9941
 Frc consts  --      0.0258                 0.0400                 0.0480
 IR Inten    --      0.7126                 0.7596                 0.9420

                      7                      8                      9
                      A                      A                      A
 Frequencies --    122.6966               261.6360               308.0767
 Red. masses --     15.0156                18.3933                 1.4144
 Frc consts  --      0.1332                 0.7418                 0.0791
 IR Inten    --      0.2371                 2.4943                74.3730

                     10                     11                     12
                      A                      A                      A
 Frequencies --    344.1700               388.8756               424.4905
 Red. masses --     14.0205                14.8629                 8.9043
 Frc consts  --      0.9785                 1.3243                 0.9453
 IR Inten    --     14.5003                 0.8930                 7.5576

                     13                     14                     15
                      A                      A                      A
 Frequencies --    427.1168               524.5356               542.9684
 Red. masses --      3.8947                 7.3556                17.7664
 Frc consts  --      0.4186                 1.1924                 3.0860
 IR Inten    --     23.2062                31.0198                21.9984

                     16                     17                     18
                      A                      A                      A
 Frequencies --    548.2494               551.7977               564.4206
 Red. masses --     16.6998                18.2198                15.4945
 Frc consts  --      2.9575                 3.2685                 2.9083
 IR Inten    --     15.2278                19.4085                41.8319

                     19                     20                     21
                      A                      A                      A
 Frequencies --    701.9437               835.1785               853.9848
 Red. masses --     15.6070                20.5338                15.5517
 Frc consts  --      4.5308                 8.4388                 6.6823
 IR Inten    --     32.9576               218.5576                41.1798

                     22                     23                     24
                      A                      A                      A
 Frequencies --    939.0705              1160.3594              1214.9609
 Red. masses --     17.5418                 1.1884                13.3425
 Frc consts  --      9.1143                 0.9428                11.6041
 IR Inten    --    289.3614                91.6211               291.4614

                     25                     26                     27
                      A                      A                      A
 Frequencies --   1277.8550              1286.6392              1304.9573
 Red. masses --     13.1105                18.3377                13.2295
 Frc consts  --     12.6134                17.8858                13.2736
 IR Inten    --     74.4507               211.4498               314.6377

                     28                     29                     30
                      A                      A                      A
 Frequencies --   1355.3265              1536.6598              3810.3687
 Red. masses --     13.3535                15.1182                 1.0657
 Frc consts  --     14.4522                21.0332                 9.1165
 IR Inten    --     90.4233               299.8070               196.5178

 - Thermochemistry -
 -------------------
 Temperature   298.150 Kelvin.  Pressure   1.00000 Atm.
 Atom     1 has atomic number  6 and mass  12.00000

 Molecular mass:   199.95666 amu.
 Principal axes and moments of inertia in atomic units:
                           1         2         3
     Eigenvalues --   939.318813519.756003779.59058
           X            0.83708  -0.14554  -0.52736
           Y            0.50399   0.58014   0.63987
           Z           -0.21282   0.80141  -0.55898
 This molecule is an asymmetric top.
 Rotational symmetry number  1.
 Warning -- assumption of classical behavior for rotation
           may cause significant error
 Rotational temperatures (Kelvin)      0.09221     0.02461     0.02292
 Rotational constants (GHZ):           1.92133     0.51275     0.47750
 Zero-point vibrational energy     128893.6 (Joules/Mol)
                                   30.80632 (Kcal/Mol)
 Warning -- explicit consideration of  18 degrees of freedom as
           vibrations may cause significant error
 Vibrational temperatures:     26.82    36.11    45.70    72.84    97.28
          (Kelvin)             99.65   176.53   376.44   443.25   495.18
                              559.51   610.75   614.53   754.69   781.21
                              788.81   793.91   812.08  1009.94  1201.64
                             1228.69  1351.11  1669.50  1748.06  1838.55
                             1851.19  1877.54  1950.01  2210.91  5482.27

 Zero-point correction=                           0.049093 (Hartree/Particle)
 Thermal correction to Energy=                    0.061184
 Thermal correction to Enthalpy=                  0.062128
 Thermal correction to Gibbs Free Energy=         0.005915
 Sum of electronic and zero-point Energies=          -1199.779036
 Sum of electronic and thermal Energies=             -1199.766946
 Sum of electronic and thermal Enthalpies=           -1199.766001
 Sum of electronic and thermal Free Energies=        -1199.822214

                     E (Thermal)             CV                S
                      KCal/Mol        Cal/Mol-Kelvin    Cal/Mol-Kelvin
 Total                   38.393             38.321            118.310
 Electronic               0.000              0.000              0.000
 Translational            0.889              2.981             41.783
 Rotational               0.889              2.981             30.903
 Vibrational             36.616             32.360             45.624
 Vibration     1          0.593              1.986              6.774
 Vibration     2          0.593              1.985              6.184
 Vibration     3          0.594              1.983              5.716
 Vibration     4          0.595              1.977              4.793
 Vibration     5          0.598              1.970              4.222
 Vibration     6          0.598              1.969              4.174
 Vibration     7          0.610              1.930              3.057
 Vibration     8          0.669              1.743              1.651
 Vibration     9          0.698              1.658              1.373
 Vibration    10          0.723              1.587              1.193
 Vibration    11          0.757              1.494              1.004
 Vibration    12          0.786              1.417              0.877
 Vibration    13          0.789              1.411              0.868
 Vibration    14          0.879              1.196              0.600
 Vibration    15          0.898              1.155              0.559
 Vibration    16          0.903              1.144              0.548
 Vibration    17          0.907              1.136              0.540
 Vibration    18          0.920              1.108              0.515

                           ! Non-Optimized Parameters !
 Normal termination of Gaussian 16 at Sat May 24 05:33:47 2025.
