 Gaussian 16, Revision C.01,
 Gaussian 16:  ES64L-G16RevC.01  3-Jul-2019

 -----------------------------------------------------------------
 #P M062X/Def2TZVPP Symm(None) scf(xqc) pop(None) freq opt(CalcFC)
 -----------------------------------------------------------------

 ------------------------------
 Gaussian input prepared by ASE
 ------------------------------
 Symbolic Z-matrix:
 Charge =  0 Multiplicity = 1

 SCF Done:  E(RM062X) =  -1199.93983297     A.U. after   13 cycles
 SCF Done:  E(RM062X) =  -1199.94061354     A.U. after   11 cycles
 SCF Done:  E(RM062X) =  -1199.94066939     A.U. after   11 cycles
 SCF Done:  E(RM062X) =  -1199.94067837     A.U. after   10 cycles
 SCF Done:  E(RM062X) =  -1199.94067928     A.U. after    8 cycles
 SCF Done:  E(RM062X) =  -1199.94067937     A.U. after    7 cycles
 Optimization completed.
    -- Stationary point found.
 Normal termination of Gaussian 16 at Sat May 24 07:34:49 2025.

 ---------------------------------------------------------------------
 #P Geom=AllCheck Guess=TCheck SCRF=Check GenChk RM062X/def2TZVPP Freq
 ---------------------------------------------------------------------

 Structure from the checkpoint file:  "2003846667223680600001_Intra_Diels_alder_R_6_7_IRC_F_prod.chk"
 ------------------------------
 Gaussian input prepared by ASE
 ------------------------------
 Charge =  0 Multiplicity = 1

                          Input orientation:
 ---------------------------------------------------------------------
 Center     Atomic      Atomic             Coordinates (Angstroms)
 Number     Number       Type             X           Y           Z
 ---------------------------------------------------------------------
      1          6           0       -1.205883   -0.890974    0.072546
      2          6           0       -0.464703    0.450689   -0.127294
      3          9           0       -0.714839    0.894666   -1.365331
      4          9           0       -0.922171    1.332560    0.757098
      5         16           0        1.364315    0.325578    0.062942
      6          8           0        1.821150   -0.596698   -0.913979
      7          8           0        1.648556    0.214644    1.440582
      8          8           0        1.743725    1.785300   -0.379670
      9          9           0       -0.886715   -1.743614   -0.884847
     10          9           0       -0.894675   -1.411996    1.248042
     11          9           0       -2.511134   -0.664410    0.030097
     12          1           0        1.875833    1.821762   -1.338188
 ---------------------------------------------------------------------

 SCF Done:  E(RM062X) =  -1199.94067937     A.U. after    1 cycles

 Isotropic polarizability for W=    0.000000       53.50 Bohr**3.
 End of Minotr F.D. properties file   721 does not exist.

                      1                      2                      3
                      A                      A                      A
 Frequencies --     23.4503                69.8335               128.1364
 Red. masses --     14.5157                14.0180                14.6228
 Frc consts  --      0.0047                 0.0403                 0.1415
 IR Inten    --      1.3236                 0.9159                 1.3562

                      4                      5                      6
                      A                      A                      A
 Frequencies --    193.8758               219.4663               237.2644
 Red. masses --      9.9820                16.9553                 8.0638
 Frc consts  --      0.2211                 0.4812                 0.2675
 IR Inten    --      7.0995                 1.5015                11.3070

                      7                      8                      9
                      A                      A                      A
 Frequencies --    283.6703               319.4546               323.3000
 Red. masses --     14.0625                 6.1749                17.4896
 Frc consts  --      0.6667                 0.3713                 1.0771
 IR Inten    --      0.4368                11.9529                 0.0633

                     10                     11                     12
                      A                      A                      A
 Frequencies --    370.6195               376.6555               446.8830
 Red. masses --      1.9393                 8.4589                 4.4193
 Frc consts  --      0.1569                 0.7071                 0.5200
 IR Inten    --     50.3934                 7.2275                24.1811

                     13                     14                     15
                      A                      A                      A
 Frequencies --    499.7419               506.8938               543.9724
 Red. masses --      7.3556                14.5998                17.7290
 Frc consts  --      1.0823                 2.2102                 3.0909
 IR Inten    --      7.8245                33.0176                25.3891

                     16                     17                     18
                      A                      A                      A
 Frequencies --    608.9548               631.2124               664.1601
 Red. masses --     17.1562                19.3723                17.6358
 Frc consts  --      3.7484                 4.5476                 4.5834
 IR Inten    --      3.6596               110.3454                47.4352

                     19                     20                     21
                      A                      A                      A
 Frequencies --    781.8762               897.7999              1040.8122
 Red. masses --     17.3542                16.5634                14.0234
 Frc consts  --      6.2507                 7.8661                 8.9505
 IR Inten    --     19.6138               228.1476                28.4934

                     22                     23                     24
                      A                      A                      A
 Frequencies --   1141.0614              1200.7192              1257.1626
 Red. masses --      1.1813                13.6002                15.8381
 Frc consts  --      0.9062                11.5526                14.7481
 IR Inten    --     93.5034               244.9995                18.3359

                     25                     26                     27
                      A                      A                      A
 Frequencies --   1264.0881              1302.3039              1305.6949
 Red. masses --     13.3874                13.8785                13.2007
 Frc consts  --     12.6038                13.8681                13.2596
 IR Inten    --     88.2176               323.3386               235.3795

                     28                     29                     30
                      A                      A                      A
 Frequencies --   1388.7642              1504.6500              3808.2236
 Red. masses --     12.6926                15.4814                 1.0657
 Frc consts  --     14.4231                20.6505                 9.1056
 IR Inten    --     91.0725               296.5863               188.2380

 - Thermochemistry -
 -------------------
 Temperature   298.150 Kelvin.  Pressure   1.00000 Atm.
 Atom     1 has atomic number  6 and mass  12.00000

 Molecular mass:   199.95666 amu.
 Principal axes and moments of inertia in atomic units:
                           1         2         3
     Eigenvalues --  1118.647622148.635772267.04297
           X            0.89497  -0.43801  -0.08473
           Y            0.44577   0.87042   0.20895
           Z           -0.01777  -0.22477   0.97425
 This molecule is an asymmetric top.
 Rotational symmetry number  1.
 Warning -- assumption of classical behavior for rotation
           may cause significant error
 Rotational temperatures (Kelvin)      0.07743     0.04031     0.03821
 Rotational constants (GHZ):           1.61332     0.83995     0.79608
 Zero-point vibrational energy     139608.4 (Joules/Mol)
                                   33.36721 (Kcal/Mol)
 Warning -- explicit consideration of  16 degrees of freedom as
           vibrations may cause significant error
 Vibrational temperatures:     33.74   100.47   184.36   278.94   315.76
          (Kelvin)            341.37   408.14   459.62   465.16   533.24
                              541.92   642.96   719.02   729.31   782.66
                              876.15   908.17   955.58  1124.95  1291.73
                             1497.50  1641.73  1727.57  1808.78  1818.74
                             1873.72  1878.60  1998.12  2164.86  5479.18

 Zero-point correction=                           0.053174 (Hartree/Particle)
 Thermal correction to Energy=                    0.063480
 Thermal correction to Enthalpy=                  0.064424
 Thermal correction to Gibbs Free Energy=         0.015928
 Sum of electronic and zero-point Energies=          -1199.887505
 Sum of electronic and thermal Energies=             -1199.877200
 Sum of electronic and thermal Enthalpies=           -1199.876255
 Sum of electronic and thermal Free Energies=        -1199.924751

                     E (Thermal)             CV                S
                      KCal/Mol        Cal/Mol-Kelvin    Cal/Mol-Kelvin
 Total                   39.834             35.972            102.068
 Electronic               0.000              0.000              0.000
 Translational            0.889              2.981             41.783
 Rotational               0.889              2.981             30.078
 Vibrational             38.057             30.011             30.207
 Vibration     1          0.593              1.985              6.318
 Vibration     2          0.598              1.969              4.158
 Vibration     3          0.611              1.925              2.974
 Vibration     4          0.635              1.848              2.190
 Vibration     5          0.647              1.811              1.963
 Vibration     6          0.656              1.784              1.823
 Vibration     7          0.682              1.704              1.511
 Vibration     8          0.705              1.636              1.313
 Vibration     9          0.708              1.629              1.293
 Vibration    10          0.743              1.533              1.077
 Vibration    11          0.747              1.520              1.053
 Vibration    12          0.806              1.368              0.805
 Vibration    13          0.855              1.251              0.659
 Vibration    14          0.862              1.235              0.641
 Vibration    15          0.899              1.153              0.557
 Vibration    16          0.968              1.013              0.435

 Optimization completed.
    -- Stationary point found.
 Normal termination of Gaussian 16 at Sat May 24 07:38:28 2025.
