 Gaussian 16, Revision C.01,
 Gaussian 16:  ES64L-G16RevC.01  3-Jul-2019

 ----------------------------------------------------------------------
 #P mp2/6-31G Symm(None) scf(xqc) pop(None) guess(Read,Mix) geom(AllChe
 ck,NoKeepConstants) irc(RCFC,reverse,MaxPoints=100,StepSize=2)
 ----------------------------------------------------------------------

 Structure from the checkpoint file:  "2003846667223680600001_R_Addition_MultipleBond_5_8_12_IRC_R.chk"
 ------------------------------
 Gaussian input prepared by ASE
 ------------------------------
 Charge =  0 Multiplicity = 1

 SCF Done:  E(RHF) =  -1194.90680052     A.U. after   19 cycles
 E2 =    -0.1294577574D+01 EUMP2 =    -0.11962013780892D+04
 SCF Done:  E(RHF) =  -1194.90692017     A.U. after   13 cycles
 E2 =    -0.1294528712D+01 EUMP2 =    -0.11962014488852D+04
 SCF Done:  E(RHF) =  -1194.90712190     A.U. after   13 cycles
 E2 =    -0.1294444771D+01 EUMP2 =    -0.11962015666679D+04
 SCF Done:  E(RHF) =  -1194.90740483     A.U. after   13 cycles
 E2 =    -0.1294326272D+01 EUMP2 =    -0.11962017311053D+04
 SCF Done:  E(RHF) =  -1194.90776779     A.U. after   13 cycles
 E2 =    -0.1294173921D+01 EUMP2 =    -0.11962019417165D+04
 SCF Done:  E(RHF) =  -1194.90820925     A.U. after   13 cycles
 E2 =    -0.1293988606D+01 EUMP2 =    -0.11962021978570D+04
 SCF Done:  E(RHF) =  -1194.90872733     A.U. after   13 cycles
 E2 =    -0.1293771403D+01 EUMP2 =    -0.11962024987338D+04
 SCF Done:  E(RHF) =  -1194.90931983     A.U. after   14 cycles
 E2 =    -0.1293523553D+01 EUMP2 =    -0.11962028433874D+04
 SCF Done:  E(RHF) =  -1194.90998424     A.U. after   14 cycles
 E2 =    -0.1293246434D+01 EUMP2 =    -0.11962032306761D+04
 SCF Done:  E(RHF) =  -1194.91071773     A.U. after   14 cycles
 E2 =    -0.1292941566D+01 EUMP2 =    -0.11962036592930D+04
 E2 =    -0.1292610578D+01 EUMP2 =    -0.11962041277458D+04
 E2 =    -0.1292255194D+01 EUMP2 =    -0.11962046343565D+04
 E2 =    -0.1291877220D+01 EUMP2 =    -0.11962051772591D+04
 E2 =    -0.1291478523D+01 EUMP2 =    -0.11962057543983D+04
 E2 =    -0.1291061016D+01 EUMP2 =    -0.11962063635268D+04
 E2 =    -0.1290626664D+01 EUMP2 =    -0.11962070022265D+04
 E2 =    -0.1290177447D+01 EUMP2 =    -0.11962076678886D+04
 E2 =    -0.1289715372D+01 EUMP2 =    -0.11962083577404D+04
 E2 =    -0.1289242462D+01 EUMP2 =    -0.11962090688542D+04
 E2 =    -0.1288760758D+01 EUMP2 =    -0.11962097981637D+04
 E2 =    -0.1283567602D+01 EUMP2 =    -0.11962390694410D+04
 E2 =    -0.1283701790D+01 EUMP2 =    -0.11962393342482D+04
 E2 =    -0.1283835172D+01 EUMP2 =    -0.11962395952898D+04
 E2 =    -0.1283967635D+01 EUMP2 =    -0.11962398526269D+04
 E2 =    -0.1284099068D+01 EUMP2 =    -0.11962401063195D+04
 E2 =    -0.1284229372D+01 EUMP2 =    -0.11962403564271D+04
 E2 =    -0.1284358452D+01 EUMP2 =    -0.11962406030084D+04
 E2 =    -0.1284486219D+01 EUMP2 =    -0.11962408461213D+04
 E2 =    -0.1284612592D+01 EUMP2 =    -0.11962410858229D+04
 E2 =    -0.1284737494D+01 EUMP2 =    -0.11962413221695D+04
 SCF Done:  E(RHF) =  -1194.95669436     A.U. after   12 cycles
 E2 =    -0.1284860855D+01 EUMP2 =    -0.11962415552164D+04
 SCF Done:  E(RHF) =  -1194.95680241     A.U. after   12 cycles
 E2 =    -0.1284982612D+01 EUMP2 =    -0.11962417850180D+04
 SCF Done:  E(RHF) =  -1194.95690892     A.U. after   12 cycles
 E2 =    -0.1285102704D+01 EUMP2 =    -0.11962420116277D+04
 SCF Done:  E(RHF) =  -1194.95701402     A.U. after   12 cycles
 E2 =    -0.1285221078D+01 EUMP2 =    -0.11962422350979D+04
 SCF Done:  E(RHF) =  -1194.95711779     A.U. after   12 cycles
 E2 =    -0.1285337687D+01 EUMP2 =    -0.11962424554797D+04
 SCF Done:  E(RHF) =  -1194.95722034     A.U. after   12 cycles
 E2 =    -0.1285452485D+01 EUMP2 =    -0.11962426728234D+04
 SCF Done:  E(RHF) =  -1194.95732174     A.U. after   12 cycles
 E2 =    -0.1285565434D+01 EUMP2 =    -0.11962428871778D+04
 SCF Done:  E(RHF) =  -1194.95742209     A.U. after   12 cycles
 E2 =    -0.1285676501D+01 EUMP2 =    -0.11962430985911D+04
 SCF Done:  E(RHF) =  -1194.95752145     A.U. after   12 cycles
 E2 =    -0.1285785656D+01 EUMP2 =    -0.11962433071096D+04
 SCF Done:  E(RHF) =  -1194.95761991     A.U. after   12 cycles
 E2 =    -0.1285892873D+01 EUMP2 =    -0.11962435127789D+04

                          Input orientation:
 ---------------------------------------------------------------------
 Center     Atomic      Atomic             Coordinates (Angstroms)
 Number     Number       Type             X           Y           Z
 ---------------------------------------------------------------------
      1          6           0       -1.213652   -0.973001    0.117967
      2          6           0       -0.608156    0.436486   -0.034261
      3          9           0       -0.891785    0.949290   -1.291887
      4          9           0       -1.048604    1.282794    0.970937
      5         16           0        1.411635    0.396463    0.025039
      6          8           0        1.851695   -0.366991    1.350274
      7          8           0        1.997002    0.060733   -1.443236
      8          8           0        1.819964    2.141599   -0.133271
      9          9           0       -0.512258   -1.858219   -0.699420
     10          9           0       -1.116018   -1.395227    1.434459
     11          9           0       -2.550899   -0.963893   -0.265062
     12          1           0        2.302974    2.106512   -1.009791
 ---------------------------------------------------------------------

 Normal termination of Gaussian 16 at Sat May 24 03:45:12 2025.
