 Gaussian 16, Revision C.01,
 Gaussian 16:  ES64L-G16RevC.01  3-Jul-2019

 ----------------------------------------------------------------------
 #P M062X/Def2TZVPP Symm(None) scf(xqc) pop(None) opt(NoFreeze,TS,CalcA
 ll,NoEigentest,MaxCycle=999)
 ----------------------------------------------------------------------

 ------------------------------
 Gaussian input prepared by ASE
 ------------------------------
 Symbolic Z-matrix:
 Charge =  0 Multiplicity = 1

 SCF Done:  E(RM062X) =  -1199.73550710     A.U. after   18 cycles
 SCF Done:  E(RM062X) =  -1199.75597235     A.U. after   15 cycles
 SCF Done:  E(RM062X) =  -1199.77098340     A.U. after   15 cycles
 SCF Done:  E(RM062X) =  -1199.78141057     A.U. after   16 cycles
 SCF Done:  E(RM062X) =  -1199.78615710     A.U. after   16 cycles
 SCF Done:  E(RM062X) =  -1199.78845213     A.U. after   15 cycles
 SCF Done:  E(RM062X) =  -1199.79084144     A.U. after   15 cycles
 SCF Done:  E(RM062X) =  -1199.79178838     A.U. after   14 cycles
 SCF Done:  E(RM062X) =  -1199.79181972     A.U. after   12 cycles
 SCF Done:  E(RM062X) =  -1199.79181976     A.U. after    6 cycles

 Isotropic polarizability for W=    0.000000       58.57 Bohr**3.
 End of Minotr F.D. properties file   721 does not exist.

 Optimization completed.
    -- Stationary point found.

                          Input orientation:
 ---------------------------------------------------------------------
 Center     Atomic      Atomic             Coordinates (Angstroms)
 Number     Number       Type             X           Y           Z
 ---------------------------------------------------------------------
      1          6           0       -0.847236   -1.488663    0.185203
      2          6           0        0.146023   -0.505743    0.830062
      3          9           0        0.369835    0.579160   -0.594116
      4          9           0       -0.500125    0.241880    1.655796
      5         16           0        1.989630    0.242311    0.003320
      6          8           0        2.223268    0.993154    1.185731
      7          8           0        2.447895   -1.036252   -0.376625
      8          8           0        2.542343    1.154996   -1.165141
      9          9           0       -0.326635   -2.059655   -0.882825
     10          9           0       -1.100206   -2.420021    1.102817
     11          9           0       -1.991073   -0.904145   -0.152499
     12          1           0        2.494221    2.082572   -0.897527
 ---------------------------------------------------------------------

 ******    1 imaginary frequencies (negative Signs) ******

                      1                      2                      3
                      A                      A                      A
 Frequencies --   -372.9561                51.9917                90.4394
 Red. masses --     14.8750                16.8203                10.8231
 Frc consts  --      1.2191                 0.0268                 0.0522
 IR Inten    --      5.0916                 0.3238                 1.0556

                      4                      5                      6
                      A                      A                      A
 Frequencies --     95.0754               158.1383               192.6798
 Red. masses --     13.1278                14.7118                13.9550
 Frc consts  --      0.0699                 0.2168                 0.3052
 IR Inten    --      1.4090                44.6749                 9.4029

                      7                      8                      9
                      A                      A                      A
 Frequencies --    252.8157               290.4698               318.2573
 Red. masses --     12.6015                16.4103                 2.0554
 Frc consts  --      0.4746                 0.8158                 0.1227
 IR Inten    --      3.9322                 3.1394                62.4300

                     10                     11                     12
                      A                      A                      A
 Frequencies --    348.3485               371.4244               403.9914
 Red. masses --     13.9384                 8.4753                 3.0817
 Frc consts  --      0.9965                 0.6889                 0.2963
 IR Inten    --     28.8191                42.6153                16.5074

                     13                     14                     15
                      A                      A                      A
 Frequencies --    453.3494               517.7963               525.2774
 Red. masses --     15.7003                 9.3257                 6.8244
 Frc consts  --      1.9012                 1.4732                 1.1094
 IR Inten    --      2.5405                26.2402                 6.3937

                     16                     17                     18
                      A                      A                      A
 Frequencies --    548.0892               583.6874               602.0115
 Red. masses --     16.8577                17.3195                17.7332
 Frc consts  --      2.9837                 3.4765                 3.7866
 IR Inten    --    152.6122                20.8975               285.8120

                     19                     20                     21
                      A                      A                      A
 Frequencies --    689.6301               738.6407               869.5519
 Red. masses --     13.7982                15.8059                15.7462
 Frc consts  --      3.8664                 5.0808                 7.0148
 IR Inten    --     85.1863                32.7249               350.2945

                     22                     23                     24
                      A                      A                      A
 Frequencies --    931.8060              1193.1019              1206.1288
 Red. masses --     14.3489                 1.2791                 8.9400
 Frc consts  --      7.3404                 1.0728                 7.6625
 IR Inten    --     19.9252                77.9175               117.1536

                     25                     26                     27
                      A                      A                      A
 Frequencies --   1241.9922              1285.1006              1311.0163
 Red. masses --     13.3319                12.9030                13.2727
 Frc consts  --     12.1166                12.5549                13.4408
 IR Inten    --    292.6047               150.1916               287.9428

                     28                     29                     30
                      A                      A                      A
 Frequencies --   1392.1679              1502.9580              3826.0289
 Red. masses --     13.1221                13.8045                 1.0657
 Frc consts  --     14.9843                18.3724                 9.1912
 IR Inten    --    117.3478               286.2870               159.9913

 - Thermochemistry -
 -------------------
 Temperature   298.150 Kelvin.  Pressure   1.00000 Atm.
 Atom     1 has atomic number  6 and mass  12.00000

 Molecular mass:   199.95666 amu.
 Principal axes and moments of inertia in atomic units:
                           1         2         3
     Eigenvalues --   966.951662591.836002811.20068
           X            0.83860  -0.25410   0.48185
           Y            0.52886   0.59180  -0.60835
           Z           -0.13057   0.76499   0.63067
 This molecule is an asymmetric top.
 Rotational symmetry number  1.
 Warning -- assumption of classical behavior for rotation
           may cause significant error
 Rotational temperatures (Kelvin)      0.08957     0.03342     0.03081
 Rotational constants (GHZ):           1.86642     0.69632     0.64198
    1 imaginary frequencies ignored.
 Zero-point vibrational energy     131541.2 (Joules/Mol)
                                   31.43909 (Kcal/Mol)
 Warning -- explicit consideration of  17 degrees of freedom as
           vibrations may cause significant error
 Vibrational temperatures:     74.80   130.12   136.79   227.53   277.22
          (Kelvin)            363.75   417.92   457.90   501.20   534.40
                              581.25   652.27   744.99   755.76   788.58
                              839.80   866.16   992.22  1062.74  1251.09
                             1340.66  1716.61  1735.35  1786.95  1848.97
                             1886.26  2003.02  2162.42  5504.80

 Zero-point correction=                           0.050101 (Hartree/Particle)
 Thermal correction to Energy=                    0.060386
 Thermal correction to Enthalpy=                  0.061330
 Thermal correction to Gibbs Free Energy=         0.013310
 Sum of electronic and zero-point Energies=          -1199.741718
 Sum of electronic and thermal Energies=             -1199.731434
 Sum of electronic and thermal Enthalpies=           -1199.730489
 Sum of electronic and thermal Free Energies=        -1199.778510

                     E (Thermal)             CV                S
                      KCal/Mol        Cal/Mol-Kelvin    Cal/Mol-Kelvin
 Total                   37.893             35.924            101.068
 Electronic               0.000              0.000              0.000
 Translational            0.889              2.981             41.783
 Rotational               0.889              2.981             30.333
 Vibrational             36.115             29.962             28.951
 Vibration     1          0.596              1.977              4.740
 Vibration     2          0.602              1.956              3.651
 Vibration     3          0.603              1.953              3.553
 Vibration     4          0.621              1.894              2.572
 Vibration     5          0.635              1.850              2.202
 Vibration     6          0.664              1.758              1.711
 Vibration     7          0.686              1.691              1.471
 Vibration     8          0.705              1.639              1.319
 Vibration     9          0.726              1.579              1.174
 Vibration    10          0.743              1.531              1.074
 Vibration    11          0.769              1.462              0.948
 Vibration    12          0.812              1.353              0.786
 Vibration    13          0.873              1.211              0.615
 Vibration    14          0.880              1.194              0.598
 Vibration    15          0.903              1.144              0.548
 Vibration    16          0.941              1.067              0.479
 Vibration    17          0.960              1.028              0.446

 Normal termination of Gaussian 16 at Sat May 24 03:36:54 2025.
