 Gaussian 16, Revision C.01,
 Gaussian 16:  ES64L-G16RevC.01  3-Jul-2019

 -----------------------------------------------------------------
 #P M062X/Def2TZVPP Symm(None) scf(xqc) pop(None) freq opt(CalcFC)
 -----------------------------------------------------------------

 ------------------------------
 Gaussian input prepared by ASE
 ------------------------------
 Symbolic Z-matrix:
 Charge =  0 Multiplicity = 1

 SCF Done:  E(RM062X) =  -1199.89623351     A.U. after   13 cycles
 SCF Done:  E(RM062X) =  -1199.92505774     A.U. after   12 cycles
 SCF Done:  E(RM062X) =  -1199.93377497     A.U. after   13 cycles
 SCF Done:  E(RM062X) =  -1199.93465579     A.U. after   12 cycles
 SCF Done:  E(RM062X) =  -1199.93641174     A.U. after   11 cycles
 SCF Done:  E(RM062X) =  -1199.93629611     A.U. after   12 cycles
 SCF Done:  E(RM062X) =  -1199.93684348     A.U. after   11 cycles
 SCF Done:  E(RM062X) =  -1199.93700226     A.U. after   11 cycles
 SCF Done:  E(RM062X) =  -1199.93734253     A.U. after   12 cycles
 SCF Done:  E(RM062X) =  -1199.93782943     A.U. after   12 cycles
 SCF Done:  E(RM062X) =  -1199.93975291     A.U. after   13 cycles
 SCF Done:  E(RM062X) =  -1199.94002889     A.U. after   11 cycles
 SCF Done:  E(RM062X) =  -1199.93962920     A.U. after   12 cycles
 SCF Done:  E(RM062X) =  -1199.94047505     A.U. after   11 cycles
 SCF Done:  E(RM062X) =  -1199.94052753     A.U. after   11 cycles
 SCF Done:  E(RM062X) =  -1199.94056215     A.U. after   10 cycles
 SCF Done:  E(RM062X) =  -1199.94056610     A.U. after    8 cycles
 SCF Done:  E(RM062X) =  -1199.94056639     A.U. after    7 cycles
 SCF Done:  E(RM062X) =  -1199.94056653     A.U. after    6 cycles
 Optimization completed.
    -- Stationary point found.
 Normal termination of Gaussian 16 at Sat May 24 07:53:14 2025.

 ---------------------------------------------------------------------
 #P Geom=AllCheck Guess=TCheck SCRF=Check GenChk RM062X/def2TZVPP Freq
 ---------------------------------------------------------------------

 Structure from the checkpoint file:  "2003846667223680600001_r13_insertion_ROR_3_2_5_6_IRC_F_prod.chk"
 ------------------------------
 Gaussian input prepared by ASE
 ------------------------------
 Charge =  0 Multiplicity = 1

                          Input orientation:
 ---------------------------------------------------------------------
 Center     Atomic      Atomic             Coordinates (Angstroms)
 Number     Number       Type             X           Y           Z
 ---------------------------------------------------------------------
      1          6           0        0.312537   -1.289725   -0.549455
      2          6           0       -0.377934   -0.313365    0.432140
      3          9           0       -1.677809   -0.265782    0.146631
      4          9           0       -0.208647   -0.768145    1.671603
      5         16           0        0.300177    1.402838    0.377735
      6          8           0       -0.336411    2.106839    1.422085
      7          8           0        1.709250    1.289898    0.246135
      8          8           0       -0.312120    1.917978   -0.972706
      9          9           0        0.367375   -0.740903   -1.766300
     10          9           0        1.535525   -1.574286   -0.151990
     11          9           0       -0.391201   -2.406860   -0.624454
     12          1           0        0.284426    1.719491   -1.709400
 ---------------------------------------------------------------------

 SCF Done:  E(RM062X) =  -1199.94056653     A.U. after    1 cycles

 Isotropic polarizability for W=    0.000000       53.50 Bohr**3.
 End of Minotr F.D. properties file   721 does not exist.

                      1                      2                      3
                      A                      A                      A
 Frequencies --     58.3377                73.8401               142.0684
 Red. masses --     12.9377                15.9677                12.0392
 Frc consts  --      0.0259                 0.0513                 0.1432
 IR Inten    --      1.7333                 0.9661                 4.3638

                      4                      5                      6
                      A                      A                      A
 Frequencies --    203.0197               224.4321               241.9388
 Red. masses --     11.6668                15.3659                10.9064
 Frc consts  --      0.2833                 0.4560                 0.3761
 IR Inten    --      5.4830                 2.5493                 1.8645

                      7                      8                      9
                      A                      A                      A
 Frequencies --    288.1774               312.2954               322.3555
 Red. masses --     17.5364                 7.0363                 8.3462
 Frc consts  --      0.8580                 0.4043                 0.5110
 IR Inten    --      3.6495                11.7173                 9.9825

                     10                     11                     12
                      A                      A                      A
 Frequencies --    351.5572               387.1891               448.3563
 Red. masses --      2.2838                 4.0820                14.3363
 Frc consts  --      0.1663                 0.3606                 1.6980
 IR Inten    --     51.7171                28.7105                 7.7061

                     13                     14                     15
                      A                      A                      A
 Frequencies --    473.5811               530.3156               542.5255
 Red. masses --      4.0450                16.4426                17.6231
 Frc consts  --      0.5345                 2.7245                 3.0561
 IR Inten    --     32.1143                13.0790                23.6940

                     16                     17                     18
                      A                      A                      A
 Frequencies --    608.6210               631.0704               665.4630
 Red. masses --     17.7021                19.9756                16.0215
 Frc consts  --      3.8634                 4.6871                 4.1802
 IR Inten    --      3.1060               109.8119                50.4021

                     19                     20                     21
                      A                      A                      A
 Frequencies --    779.6524               905.0887              1035.6171
 Red. masses --     17.4509                16.7932                12.6695
 Frc consts  --      6.2499                 8.1052                 8.0058
 IR Inten    --     10.4361               183.9004                82.7906

                     22                     23                     24
                      A                      A                      A
 Frequencies --   1146.4150              1198.7708              1260.0456
 Red. masses --      1.1965                13.5510                14.2601
 Frc consts  --      0.9265                11.4735                13.3397
 IR Inten    --    120.8997               144.2808                54.0086

                     25                     26                     27
                      A                      A                      A
 Frequencies --   1274.4269              1277.8635              1313.4446
 Red. masses --     12.4634                14.7455                13.3923
 Frc consts  --     11.9266                14.1866                13.6122
 IR Inten    --    246.7474                87.4209               351.2359

                     28                     29                     30
                      A                      A                      A
 Frequencies --   1392.8358              1502.9607              3802.8242
 Red. masses --     12.7165                15.2905                 1.0656
 Frc consts  --     14.5351                20.3501                 9.0794
 IR Inten    --     96.8849               280.0471               173.3958

 - Thermochemistry -
 -------------------
 Temperature   298.150 Kelvin.  Pressure   1.00000 Atm.
 Atom     1 has atomic number  6 and mass  12.00000

 Molecular mass:   199.95666 amu.
 Principal axes and moments of inertia in atomic units:
                           1         2         3
     Eigenvalues --  1137.697272086.491152236.17355
           X           -0.01071   0.69687   0.71712
           Y            0.95988   0.20814  -0.18793
           Z            0.28022  -0.68633   0.67114
 This molecule is an asymmetric top.
 Rotational symmetry number  1.
 Warning -- assumption of classical behavior for rotation
           may cause significant error
 Rotational temperatures (Kelvin)      0.07613     0.04151     0.03873
 Rotational constants (GHZ):           1.58631     0.86496     0.80707
 Zero-point vibrational energy     139933.7 (Joules/Mol)
                                   33.44496 (Kcal/Mol)
 Warning -- explicit consideration of  16 degrees of freedom as
           vibrations may cause significant error
 Vibrational temperatures:     83.93   106.24   204.40   292.10   322.91
          (Kelvin)            348.10   414.62   449.32   463.80   505.81
                              557.08   645.08   681.38   763.01   780.57
                              875.67   907.97   957.45  1121.75  1302.22
                             1490.02  1649.44  1724.76  1812.92  1833.62
                             1838.56  1889.75  2003.98  2162.43  5471.42

 Zero-point correction=                           0.053298 (Hartree/Particle)
 Thermal correction to Energy=                    0.063484
 Thermal correction to Enthalpy=                  0.064428
 Thermal correction to Gibbs Free Energy=         0.016993
 Sum of electronic and zero-point Energies=          -1199.887269
 Sum of electronic and thermal Energies=             -1199.877082
 Sum of electronic and thermal Enthalpies=           -1199.876138
 Sum of electronic and thermal Free Energies=        -1199.923573

                     E (Thermal)             CV                S
                      KCal/Mol        Cal/Mol-Kelvin    Cal/Mol-Kelvin
 Total                   39.837             35.943             99.835
 Electronic               0.000              0.000              0.000
 Translational            0.889              2.981             41.783
 Rotational               0.889              2.981             30.052
 Vibrational             38.060             29.982             28.000
 Vibration     1          0.596              1.974              4.513
 Vibration     2          0.599              1.966              4.048
 Vibration     3          0.616              1.911              2.776
 Vibration     4          0.639              1.836              2.106
 Vibration     5          0.649              1.804              1.923
 Vibration     6          0.658              1.776              1.789
 Vibration     7          0.685              1.696              1.485
 Vibration     8          0.701              1.650              1.350
 Vibration     9          0.707              1.631              1.298
 Vibration    10          0.728              1.572              1.159
 Vibration    11          0.756              1.498              1.011
 Vibration    12          0.807              1.365              0.801
 Vibration    13          0.830              1.309              0.728
 Vibration    14          0.885              1.183              0.586
 Vibration    15          0.898              1.156              0.560
 Vibration    16          0.968              1.014              0.435

 Optimization completed.
    -- Stationary point found.
 Normal termination of Gaussian 16 at Sat May 24 07:56:55 2025.
