 Gaussian 16, Revision C.01,
 Gaussian 16:  ES64L-G16RevC.01  3-Jul-2019

 ----------------------------------------------------------------------
 #P M062X/Def2TZVPP Symm(None) scf(xqc) pop(None) opt(NoFreeze,TS,CalcA
 ll,NoEigentest,MaxCycle=999)
 ----------------------------------------------------------------------

 ------------------------------
 Gaussian input prepared by ASE
 ------------------------------
 Symbolic Z-matrix:
 Charge =  0 Multiplicity = 1

 SCF Done:  E(RM062X) =  -1199.75149978     A.U. after   15 cycles
 SCF Done:  E(RM062X) =  -1199.77556348     A.U. after   15 cycles
 SCF Done:  E(RM062X) =  -1199.78886151     A.U. after   14 cycles
 SCF Done:  E(RM062X) =  -1199.79138773     A.U. after   14 cycles
 SCF Done:  E(RM062X) =  -1199.79180934     A.U. after   13 cycles
 SCF Done:  E(RM062X) =  -1199.79181773     A.U. after   11 cycles

 Isotropic polarizability for W=    0.000000       58.57 Bohr**3.
 End of Minotr F.D. properties file   721 does not exist.

 Optimization completed.
    -- Stationary point found.

                          Input orientation:
 ---------------------------------------------------------------------
 Center     Atomic      Atomic             Coordinates (Angstroms)
 Number     Number       Type             X           Y           Z
 ---------------------------------------------------------------------
      1          6           0       -0.858851   -1.475748    0.168782
      2          6           0        0.150744   -0.519747    0.828519
      3          9           0        0.372248    0.597987   -0.570087
      4          9           0       -0.479742    0.213521    1.678902
      5         16           0        1.994197    0.229723    0.002646
      6          8           0        2.247026    0.948339    1.200962
      7          8           0        2.435242   -1.043564   -0.413682
      8          8           0        2.545105    1.165648   -1.148179
      9          9           0       -0.353461   -2.026446   -0.917065
     10          9           0       -1.114846   -2.426240    1.065695
     11          9           0       -1.998737   -0.870604   -0.145093
     12          1           0        2.509018    2.086717   -0.857208
 ---------------------------------------------------------------------

 ******    1 imaginary frequencies (negative Signs) ******

                      1                      2                      3
                      A                      A                      A
 Frequencies --   -373.0008                52.7830                89.3453
 Red. masses --     14.8751                16.7981                 9.7010
 Frc consts  --      1.2194                 0.0276                 0.0456
 IR Inten    --      5.0658                 0.3677                 1.6135

                      4                      5                      6
                      A                      A                      A
 Frequencies --     93.6883               157.9787               192.3580
 Red. masses --     14.3367                14.5929                13.5471
 Frc consts  --      0.0741                 0.2146                 0.2953
 IR Inten    --      1.0904                44.6781                 9.2152

                      7                      8                      9
                      A                      A                      A
 Frequencies --    252.2941               290.6166               312.0018
 Red. masses --     11.4402                15.7593                 1.9050
 Frc consts  --      0.4290                 0.7842                 0.1093
 IR Inten    --      5.0223                 3.0431                67.0943

                     10                     11                     12
                      A                      A                      A
 Frequencies --    348.2755               371.0939               399.6399
 Red. masses --     14.6962                 8.5690                 3.5934
 Frc consts  --      1.0503                 0.6953                 0.3381
 IR Inten    --     27.2137                39.6152                16.4628

                     13                     14                     15
                      A                      A                      A
 Frequencies --    453.3156               517.6368               524.7011
 Red. masses --     16.0201                 9.2098                 7.0069
 Frc consts  --      1.9396                 1.4539                 1.1366
 IR Inten    --      2.5203                27.3650                 6.1904

                     16                     17                     18
                      A                      A                      A
 Frequencies --    548.1628               583.7455               601.8345
 Red. masses --     16.8664                17.3189                17.9268
 Frc consts  --      2.9860                 3.4771                 3.8257
 IR Inten    --    152.8769                20.6341               284.7466

                     19                     20                     21
                      A                      A                      A
 Frequencies --    689.4603               738.7454               869.5434
 Red. masses --     13.8639                15.8059                15.7413
 Frc consts  --      3.8829                 5.0823                 7.0125
 IR Inten    --     84.5101                32.6371               350.0717

                     22                     23                     24
                      A                      A                      A
 Frequencies --    931.8294              1192.5954              1204.8602
 Red. masses --     14.3535                 1.2794                 8.9449
 Frc consts  --      7.3431                 1.0722                 7.6507
 IR Inten    --     19.9515                77.7871               118.3183

                     25                     26                     27
                      A                      A                      A
 Frequencies --   1242.3574              1285.3309              1311.6071
 Red. masses --     13.3249                12.9031                13.2728
 Frc consts  --     12.1173                12.5595                13.4530
 IR Inten    --    291.5828               149.7373               287.9990

                     28                     29                     30
                      A                      A                      A
 Frequencies --   1392.6103              1501.9048              3827.5624
 Red. masses --     13.1189                13.7842                 1.0657
 Frc consts  --     14.9901                18.3196                 9.1985
 IR Inten    --    116.8948               286.9826               160.0699

 - Thermochemistry -
 -------------------
 Temperature   298.150 Kelvin.  Pressure   1.00000 Atm.
 Atom     1 has atomic number  6 and mass  12.00000

 Molecular mass:   199.95666 amu.
 Principal axes and moments of inertia in atomic units:
                           1         2         3
     Eigenvalues --   966.956172591.575012811.00452
           X            0.84288  -0.24056  -0.48133
           Y            0.52326   0.57502   0.62893
           Z           -0.12548   0.78197  -0.61055
 This molecule is an asymmetric top.
 Rotational symmetry number  1.
 Warning -- assumption of classical behavior for rotation
           may cause significant error
 Rotational temperatures (Kelvin)      0.08957     0.03342     0.03081
 Rotational constants (GHZ):           1.86641     0.69639     0.64203
    1 imaginary frequencies ignored.
 Zero-point vibrational energy     131456.9 (Joules/Mol)
                                   31.41895 (Kcal/Mol)
 Warning -- explicit consideration of  17 degrees of freedom as
           vibrations may cause significant error
 Vibrational temperatures:     75.94   128.55   134.80   227.30   276.76
          (Kelvin)            362.99   418.13   448.90   501.09   533.92
                              574.99   652.22   744.76   754.93   788.68
                              839.88   865.91   991.98  1062.89  1251.08
                             1340.69  1715.88  1733.53  1787.48  1849.30
                             1887.11  2003.66  2160.91  5507.01

 Zero-point correction=                           0.050069 (Hartree/Particle)
 Thermal correction to Energy=                    0.060371
 Thermal correction to Enthalpy=                  0.061316
 Thermal correction to Gibbs Free Energy=         0.013256
 Sum of electronic and zero-point Energies=          -1199.741748
 Sum of electronic and thermal Energies=             -1199.731446
 Sum of electronic and thermal Enthalpies=           -1199.730502
 Sum of electronic and thermal Free Energies=        -1199.778562

                     E (Thermal)             CV                S
                      KCal/Mol        Cal/Mol-Kelvin    Cal/Mol-Kelvin
 Total                   37.884             35.951            101.151
 Electronic               0.000              0.000              0.000
 Translational            0.889              2.981             41.783
 Rotational               0.889              2.981             30.333
 Vibrational             36.106             29.990             29.034
 Vibration     1          0.596              1.976              4.710
 Vibration     2          0.602              1.957              3.674
 Vibration     3          0.603              1.954              3.582
 Vibration     4          0.621              1.894              2.574
 Vibration     5          0.634              1.850              2.205
 Vibration     6          0.664              1.759              1.714
 Vibration     7          0.687              1.691              1.470
 Vibration     8          0.700              1.651              1.352
 Vibration     9          0.726              1.579              1.174
 Vibration    10          0.743              1.532              1.075
 Vibration    11          0.766              1.471              0.964
 Vibration    12          0.812              1.354              0.786
 Vibration    13          0.873              1.211              0.615
 Vibration    14          0.880              1.195              0.599
 Vibration    15          0.903              1.144              0.548
 Vibration    16          0.941              1.066              0.478
 Vibration    17          0.960              1.028              0.447

 Normal termination of Gaussian 16 at Sat May 24 03:15:07 2025.
