 Gaussian 16, Revision C.01,
 Gaussian 16:  ES64L-G16RevC.01  3-Jul-2019

 -----------------------------------------------------------------
 #P M062X/Def2TZVPP Symm(None) scf(xqc) pop(None) freq opt(CalcFC)
 -----------------------------------------------------------------

 ------------------------------
 Gaussian input prepared by ASE
 ------------------------------
 Symbolic Z-matrix:
 Charge =  0 Multiplicity = 1

 SCF Done:  E(RM062X) =  -1199.93649962     A.U. after   13 cycles
 SCF Done:  E(RM062X) =  -1199.93694807     A.U. after   12 cycles
 SCF Done:  E(RM062X) =  -1199.93834589     A.U. after   12 cycles
 SCF Done:  E(RM062X) =  -1199.94004852     A.U. after   13 cycles
 SCF Done:  E(RM062X) =  -1199.94016721     A.U. after   12 cycles
 SCF Done:  E(RM062X) =  -1199.93957475     A.U. after   12 cycles
 SCF Done:  E(RM062X) =  -1199.94036480     A.U. after   12 cycles
 SCF Done:  E(RM062X) =  -1199.94031281     A.U. after   11 cycles
 SCF Done:  E(RM062X) =  -1199.94056079     A.U. after   12 cycles
 SCF Done:  E(RM062X) =  -1199.94061641     A.U. after   11 cycles
 SCF Done:  E(RM062X) =  -1199.94064220     A.U. after   10 cycles
 SCF Done:  E(RM062X) =  -1199.94063095     A.U. after   12 cycles
 SCF Done:  E(RM062X) =  -1199.94067844     A.U. after   11 cycles
 SCF Done:  E(RM062X) =  -1199.94067749     A.U. after    8 cycles
 SCF Done:  E(RM062X) =  -1199.94068045     A.U. after   10 cycles
 SCF Done:  E(RM062X) =  -1199.94068048     A.U. after    7 cycles
 SCF Done:  E(RM062X) =  -1199.94068051     A.U. after    7 cycles
 Optimization completed.
    -- Stationary point found.
 Normal termination of Gaussian 16 at Sat May 24 04:36:29 2025.

 ---------------------------------------------------------------------
 #P Geom=AllCheck Guess=TCheck SCRF=Check GenChk RM062X/def2TZVPP Freq
 ---------------------------------------------------------------------

 Structure from the checkpoint file:  "2003846667223680600001_r12_insertion_R_2_5_8_IRC_F_prod.chk"
 ------------------------------
 Gaussian input prepared by ASE
 ------------------------------
 Charge =  0 Multiplicity = 1

                          Input orientation:
 ---------------------------------------------------------------------
 Center     Atomic      Atomic             Coordinates (Angstroms)
 Number     Number       Type             X           Y           Z
 ---------------------------------------------------------------------
      1          6           0       -1.090429   -0.998035   -0.057381
      2          6           0       -0.417615    0.357985   -0.370430
      3          9           0       -0.239251    0.448647   -1.694216
      4          9           0       -1.217721    1.340539    0.033954
      5         16           0        1.227600    0.575337    0.431724
      6          8           0        1.009233    0.849160    1.798547
      7          8           0        2.060963   -0.471945   -0.040052
      8          8           0        1.644867    1.924928   -0.257487
      9          9           0       -2.308047   -0.997730   -0.581075
     10          9           0       -0.397129   -1.991910   -0.583513
     11          9           0       -1.181775   -1.169051    1.251279
     12          1           0        2.107230    1.748054   -1.089621
 ---------------------------------------------------------------------

 SCF Done:  E(RM062X) =  -1199.94068051     A.U. after    1 cycles

 Isotropic polarizability for W=    0.000000       53.47 Bohr**3.
 End of Minotr F.D. properties file   721 does not exist.

                      1                      2                      3
                      A                      A                      A
 Frequencies --     20.7588                69.3336               128.5098
 Red. masses --     14.4487                14.0262                14.5006
 Frc consts  --      0.0037                 0.0397                 0.1411
 IR Inten    --      1.3390                 0.9162                 1.3930

                      4                      5                      6
                      A                      A                      A
 Frequencies --    194.1767               220.3061               238.2025
 Red. masses --      9.0076                16.7745                 7.7964
 Frc consts  --      0.2001                 0.4797                 0.2606
 IR Inten    --      8.5046                 1.6228                11.9845

                      7                      8                      9
                      A                      A                      A
 Frequencies --    283.8554               316.7732               323.5032
 Red. masses --     13.5091                 4.7945                17.7398
 Frc consts  --      0.6413                 0.2835                 1.0938
 IR Inten    --      0.3274                17.5657                 0.0460

                     10                     11                     12
                      A                      A                      A
 Frequencies --    362.2229               376.1190               445.1164
 Red. masses --      1.8622                16.4073                 4.9249
 Frc consts  --      0.1440                 1.3675                 0.5749
 IR Inten    --     53.5020                 0.8090                21.8888

                     13                     14                     15
                      A                      A                      A
 Frequencies --    499.3723               506.5516               543.9325
 Red. masses --      7.5601                14.8297                17.7640
 Frc consts  --      1.1108                 2.2420                 3.0966
 IR Inten    --      7.8236                32.3541                25.3209

                     16                     17                     18
                      A                      A                      A
 Frequencies --    608.9616               630.9951               664.1303
 Red. masses --     17.1450                19.4311                17.6237
 Frc consts  --      3.7460                 4.5583                 4.5799
 IR Inten    --      3.6431               110.3378                47.2921

                     19                     20                     21
                      A                      A                      A
 Frequencies --    781.7493               897.7896              1041.2683
 Red. masses --     17.3631                16.5837                14.0245
 Frc consts  --      6.2519                 7.8756                 8.9590
 IR Inten    --     19.4324               228.3350                28.8727

                     22                     23                     24
                      A                      A                      A
 Frequencies --   1137.3010              1201.1402              1256.4386
 Red. masses --      1.1826                13.6476                15.8944
 Frc consts  --      0.9012                11.6009                14.7835
 IR Inten    --     92.1010               247.2983                15.1348

                     25                     26                     27
                      A                      A                      A
 Frequencies --   1264.0213              1301.4576              1305.5864
 Red. masses --     13.3263                13.8792                13.2007
 Frc consts  --     12.5449                13.8508                13.2574
 IR Inten    --     91.9529               322.1486               235.0169

                     28                     29                     30
                      A                      A                      A
 Frequencies --   1389.8034              1503.1659              3809.9702
 Red. masses --     12.6858                15.5099                 1.0657
 Frc consts  --     14.4369                20.6478                 9.1141
 IR Inten    --     90.6507               296.3102               188.3913

 - Thermochemistry -
 -------------------
 Temperature   298.150 Kelvin.  Pressure   1.00000 Atm.
 Atom     1 has atomic number  6 and mass  12.00000

 Molecular mass:   199.95666 amu.
 Principal axes and moments of inertia in atomic units:
                           1         2         3
     Eigenvalues --  1118.608522148.966172267.31495
           X            0.81084  -0.38622  -0.43974
           Y            0.56546   0.71079   0.41837
           Z            0.15098  -0.58789   0.79473
 This molecule is an asymmetric top.
 Rotational symmetry number  1.
 Warning -- assumption of classical behavior for rotation
           may cause significant error
 Rotational temperatures (Kelvin)      0.07743     0.04030     0.03820
 Rotational constants (GHZ):           1.61338     0.83982     0.79598
 Zero-point vibrational energy     139499.6 (Joules/Mol)
                                   33.34121 (Kcal/Mol)
 Warning -- explicit consideration of  16 degrees of freedom as
           vibrations may cause significant error
 Vibrational temperatures:     29.87    99.76   184.90   279.38   316.97
          (Kelvin)            342.72   408.40   455.77   465.45   521.16
                              541.15   640.42   718.49   728.81   782.60
                              876.16   907.86   955.54  1124.76  1291.72
                             1498.15  1636.32  1728.17  1807.73  1818.64
                             1872.51  1878.45  1999.62  2162.72  5481.70

 Zero-point correction=                           0.053133 (Hartree/Particle)
 Thermal correction to Energy=                    0.063456
 Thermal correction to Enthalpy=                  0.064400
 Thermal correction to Gibbs Free Energy=         0.015766
 Sum of electronic and zero-point Energies=          -1199.887548
 Sum of electronic and thermal Energies=             -1199.877224
 Sum of electronic and thermal Enthalpies=           -1199.876280
 Sum of electronic and thermal Free Energies=        -1199.924915

                     E (Thermal)             CV                S
                      KCal/Mol        Cal/Mol-Kelvin    Cal/Mol-Kelvin
 Total                   39.819             36.002            102.360
 Electronic               0.000              0.000              0.000
 Translational            0.889              2.981             41.783
 Rotational               0.889              2.981             30.078
 Vibrational             38.042             30.041             30.498
 Vibration     1          0.593              1.986              6.560
 Vibration     2          0.598              1.969              4.172
 Vibration     3          0.611              1.925              2.968
 Vibration     4          0.635              1.848              2.188
 Vibration     5          0.647              1.810              1.957
 Vibration     6          0.656              1.782              1.816
 Vibration     7          0.682              1.704              1.510
 Vibration     8          0.704              1.642              1.327
 Vibration     9          0.708              1.628              1.292
 Vibration    10          0.736              1.550              1.113
 Vibration    11          0.747              1.521              1.055
 Vibration    12          0.804              1.372              0.811
 Vibration    13          0.855              1.251              0.660
 Vibration    14          0.862              1.235              0.642
 Vibration    15          0.899              1.153              0.557
 Vibration    16          0.968              1.013              0.434

 Optimization completed.
    -- Stationary point found.
 Normal termination of Gaussian 16 at Sat May 24 04:41:30 2025.
