 Gaussian 16, Revision C.01,
 Gaussian 16:  ES64L-G16RevC.01  3-Jul-2019

 ----------------------------------------------------------------------
 #P M062X/Def2TZVPP Symm(None) scf(xqc) pop(None) geom(AllCheck,NoKeepC
 onstants) guess(Read) irc(RCFC,reverse,MaxPoints=100,StepSize=2)
 ----------------------------------------------------------------------

 Structure from the checkpoint file:  "2003846667223680600001_r12_insertion_R_8_5_2_IRC_R.chk"
 ------------------------------
 Gaussian input prepared by ASE
 ------------------------------
 Charge =  0 Multiplicity = 1

 SCF Done:  E(RM062X) =  -1199.93650069     A.U. after    7 cycles

                          Input orientation:
 ---------------------------------------------------------------------
 Center     Atomic      Atomic             Coordinates (Angstroms)
 Number     Number       Type             X           Y           Z
 ---------------------------------------------------------------------
      1          6           0       -1.140886   -0.969476    0.010068
      2          6           0       -0.443471    0.412903   -0.265014
      3          9           0       -0.482548    0.685455   -1.572756
      4          9           0       -1.078783    1.376919    0.393378
      5         16           0        1.327655    0.440758    0.241962
      6          8           0        1.366941    0.387365    1.652197
      7          8           0        2.022534   -0.458864   -0.607923
      8          8           0        1.666888    1.916008   -0.184366
      9          9           0       -1.594225   -1.477554   -1.122918
     10          9           0       -0.286962   -1.828134    0.548789
     11          9           0       -2.153714   -0.802253    0.841528
     12          1           0        1.992206    1.931564   -1.096104
 ---------------------------------------------------------------------

 Normal termination of Gaussian 16 at Sat May 24 04:07:40 2025.
