 Gaussian 16, Revision C.01,
 Gaussian 16:  ES64L-G16RevC.01  3-Jul-2019

 -----------------------------------------------------------------
 #P M062X/Def2TZVPP Symm(None) scf(xqc) pop(None) freq opt(CalcFC)
 -----------------------------------------------------------------

 ------------------------------
 Gaussian input prepared by ASE
 ------------------------------
 Symbolic Z-matrix:
 Charge =  0 Multiplicity = 1

 SCF Done:  E(RM062X) =  -1199.90932712     A.U. after   13 cycles
 SCF Done:  E(RM062X) =  -1199.93178704     A.U. after   12 cycles
 SCF Done:  E(RM062X) =  -1199.93085764     A.U. after   13 cycles
 SCF Done:  E(RM062X) =  -1199.93618955     A.U. after   12 cycles
 SCF Done:  E(RM062X) =  -1199.93809553     A.U. after   12 cycles
 SCF Done:  E(RM062X) =  -1199.93971287     A.U. after   11 cycles
 SCF Done:  E(RM062X) =  -1199.94011804     A.U. after   10 cycles
 SCF Done:  E(RM062X) =  -1199.94039699     A.U. after   10 cycles
 SCF Done:  E(RM062X) =  -1199.94049137     A.U. after   10 cycles
 SCF Done:  E(RM062X) =  -1199.94053841     A.U. after   10 cycles
 SCF Done:  E(RM062X) =  -1199.94055843     A.U. after   10 cycles
 SCF Done:  E(RM062X) =  -1199.94056298     A.U. after    9 cycles
 SCF Done:  E(RM062X) =  -1199.94056348     A.U. after    7 cycles
 SCF Done:  E(RM062X) =  -1199.94056385     A.U. after    6 cycles
 SCF Done:  E(RM062X) =  -1199.94056402     A.U. after    6 cycles
 Optimization completed.
    -- Stationary point found.
 Normal termination of Gaussian 16 at Sat May 24 06:06:22 2025.

 ---------------------------------------------------------------------
 #P Geom=AllCheck Guess=TCheck SCRF=Check GenChk RM062X/def2TZVPP Freq
 ---------------------------------------------------------------------

 Structure from the checkpoint file:  "2003846667223680600001_r12_insertion_R_1_2_3_IRC_F_prod.chk"
 ------------------------------
 Gaussian input prepared by ASE
 ------------------------------
 Charge =  0 Multiplicity = 1

                          Input orientation:
 ---------------------------------------------------------------------
 Center     Atomic      Atomic             Coordinates (Angstroms)
 Number     Number       Type             X           Y           Z
 ---------------------------------------------------------------------
      1          6           0       -1.270587   -0.320893   -0.715726
      2          6           0       -0.453530   -0.087496    0.577048
      3          9           0       -0.975115    0.625409   -1.611595
      4          9           0       -0.942285    0.979266    1.206788
      5         16           0        1.349375    0.177897    0.281022
      6          8           0        1.950935    0.227069    1.556637
      7          8           0        1.740189   -0.725364   -0.742218
      8          8           0        1.342148    1.641015   -0.287151
      9          9           0       -1.005921   -1.501492   -1.235979
     10          9           0       -0.574806   -1.160704    1.354955
     11          9           0       -2.561511   -0.247486   -0.438384
     12          1           0        1.240381    1.627354   -1.250246
 ---------------------------------------------------------------------

 SCF Done:  E(RM062X) =  -1199.94056402     A.U. after    1 cycles

 Isotropic polarizability for W=    0.000000       53.49 Bohr**3.
 End of Minotr F.D. properties file   721 does not exist.

                      1                      2                      3
                      A                      A                      A
 Frequencies --     57.6532                73.2033               145.1194
 Red. masses --     12.9666                16.1661                13.4933
 Frc consts  --      0.0254                 0.0510                 0.1674
 IR Inten    --      1.7528                 0.8564                 2.8198

                      4                      5                      6
                      A                      A                      A
 Frequencies --    203.8796               223.3041               242.1421
 Red. masses --     12.4840                16.7093                11.6862
 Frc consts  --      0.3057                 0.4909                 0.4037
 IR Inten    --      4.9158                 2.0289                 1.5808

                      7                      8                      9
                      A                      A                      A
 Frequencies --    288.4720               312.9005               323.8443
 Red. masses --     17.6584                 9.4869                11.0797
 Frc consts  --      0.8658                 0.5473                 0.6846
 IR Inten    --      2.9720                 6.5002                 5.2100

                     10                     11                     12
                      A                      A                      A
 Frequencies --    361.8952               394.0743               448.5834
 Red. masses --      3.0561                 2.5715                13.8557
 Frc consts  --      0.2358                 0.2353                 1.6427
 IR Inten    --     35.6152                48.8470                 9.4092

                     13                     14                     15
                      A                      A                      A
 Frequencies --    479.0786               529.7278               542.6916
 Red. masses --      3.2911                16.4262                17.6007
 Frc consts  --      0.4450                 2.7158                 3.0541
 IR Inten    --     37.8141                13.4695                23.7720

                     16                     17                     18
                      A                      A                      A
 Frequencies --    608.4442               631.2283               665.6596
 Red. masses --     17.7046                19.9481                15.9433
 Frc consts  --      3.8617                 4.6830                 4.1623
 IR Inten    --      3.0474               110.3614                51.4141

                     19                     20                     21
                      A                      A                      A
 Frequencies --    779.9403               906.0503              1036.2005
 Red. masses --     17.4585                16.7284                12.6134
 Frc consts  --      6.2572                 8.0912                 7.9794
 IR Inten    --     10.2406               182.6511                82.0442

                     22                     23                     24
                      A                      A                      A
 Frequencies --   1146.8750              1199.3071              1259.8539
 Red. masses --      1.1974                13.4684                14.3708
 Frc consts  --      0.9279                11.4137                13.4391
 IR Inten    --    123.8812               144.0739                60.1610

                     25                     26                     27
                      A                      A                      A
 Frequencies --   1274.8385              1277.8218              1313.2314
 Red. masses --     12.4902                14.5331                13.3897
 Frc consts  --     11.9600                13.9814                13.6051
 IR Inten    --    232.6287                94.4428               350.0791

                     28                     29                     30
                      A                      A                      A
 Frequencies --   1392.5846              1502.5607              3804.4311
 Red. masses --     12.7165                15.2809                 1.0656
 Frc consts  --     14.5299                20.3266                 9.0870
 IR Inten    --     97.2080               280.0464               172.7956

 - Thermochemistry -
 -------------------
 Temperature   298.150 Kelvin.  Pressure   1.00000 Atm.
 Atom     1 has atomic number  6 and mass  12.00000

 Molecular mass:   199.95666 amu.
 Principal axes and moments of inertia in atomic units:
                           1         2         3
     Eigenvalues --  1137.756542085.958992235.73202
           X            0.92248  -0.31856  -0.21807
           Y            0.21374  -0.04895   0.97566
           Z            0.32149   0.94664  -0.02294
 This molecule is an asymmetric top.
 Rotational symmetry number  1.
 Warning -- assumption of classical behavior for rotation
           may cause significant error
 Rotational temperatures (Kelvin)      0.07613     0.04152     0.03874
 Rotational constants (GHZ):           1.58623     0.86519     0.80723
 Zero-point vibrational energy     140116.2 (Joules/Mol)
                                   33.48857 (Kcal/Mol)
 Warning -- explicit consideration of  16 degrees of freedom as
           vibrations may cause significant error
 Vibrational temperatures:     82.95   105.32   208.79   293.34   321.28
          (Kelvin)            348.39   415.05   450.19   465.94   520.69
                              566.98   645.41   689.29   762.16   780.81
                              875.42   908.20   957.74  1122.16  1303.60
                             1490.86  1650.10  1725.54  1812.65  1834.21
                             1838.50  1889.45  2003.62  2161.85  5473.73

 Zero-point correction=                           0.053367 (Hartree/Particle)
 Thermal correction to Energy=                    0.063525
 Thermal correction to Enthalpy=                  0.064470
 Thermal correction to Gibbs Free Energy=         0.017082
 Sum of electronic and zero-point Energies=          -1199.887197
 Sum of electronic and thermal Energies=             -1199.877039
 Sum of electronic and thermal Enthalpies=           -1199.876094
 Sum of electronic and thermal Free Energies=        -1199.923482

                     E (Thermal)             CV                S
                      KCal/Mol        Cal/Mol-Kelvin    Cal/Mol-Kelvin
 Total                   39.863             35.885             99.735
 Electronic               0.000              0.000              0.000
 Translational            0.889              2.981             41.783
 Rotational               0.889              2.981             30.052
 Vibrational             38.085             29.924             27.899
 Vibration     1          0.596              1.974              4.536
 Vibration     2          0.599              1.967              4.065
 Vibration     3          0.617              1.908              2.735
 Vibration     4          0.640              1.834              2.098
 Vibration     5          0.649              1.806              1.932
 Vibration     6          0.658              1.776              1.787
 Vibration     7          0.685              1.695              1.483
 Vibration     8          0.701              1.649              1.347
 Vibration     9          0.708              1.628              1.291
 Vibration    10          0.736              1.551              1.114
 Vibration    11          0.761              1.483              0.985
 Vibration    12          0.808              1.364              0.800
 Vibration    13          0.836              1.296              0.713
 Vibration    14          0.885              1.184              0.588
 Vibration    15          0.898              1.156              0.560
 Vibration    16          0.967              1.014              0.435

 Optimization completed.
    -- Stationary point found.
 Normal termination of Gaussian 16 at Sat May 24 06:11:28 2025.
