 Gaussian 16, Revision C.01,
 Gaussian 16:  ES64L-G16RevC.01  3-Jul-2019

 ----------------------------------------------------------------------
 #P M062X/Def2TZVPP Symm(None) scf(xqc) pop(None) geom(AllCheck,NoKeepC
 onstants) guess(Read) irc(RCFC,reverse,MaxPoints=100,StepSize=2)
 ----------------------------------------------------------------------

 Structure from the checkpoint file:  "2003846667223680600001_r13_insertion_ROR_3_2_5_8_IRC_R.chk"
 ------------------------------
 Gaussian input prepared by ASE
 ------------------------------
 Charge =  0 Multiplicity = 1

 SCF Done:  E(RM062X) =  -1199.83931432     A.U. after   10 cycles

                          Input orientation:
 ---------------------------------------------------------------------
 Center     Atomic      Atomic             Coordinates (Angstroms)
 Number     Number       Type             X           Y           Z
 ---------------------------------------------------------------------
      1          6           0       -0.009053   -1.180697   -0.866454
      2          6           0        0.269861   -0.335585    0.402178
      3          9           0       -2.258609   -0.618170    0.682326
      4          9           0        0.327329   -1.001850    1.456844
      5         16           0        0.499819    1.484302    0.421456
      6          8           0        1.189533    1.749357    1.631964
      7          8           0        1.114400    1.769990   -0.825908
      8          8           0       -0.951864    1.608376    0.461198
      9          9           0       -0.751100   -0.529674   -1.722288
     10          9           0        1.204587   -1.385240   -1.373072
     11          9           0       -0.547829   -2.338979   -0.561701
     12          1           0       -2.235076    0.314183    0.659213
 ---------------------------------------------------------------------

 Normal termination of Gaussian 16 at Sat May 24 08:44:24 2025.
