 Gaussian 16, Revision C.01,
 Gaussian 16:  ES64L-G16RevC.01  3-Jul-2019

 ----------------------------------------------------------------------
 #P M062X/Def2TZVPP Symm(None) scf(xqc) pop(None) geom(AllCheck,NoKeepC
 onstants) guess(Read) irc(RCFC,reverse,MaxPoints=100,StepSize=2)
 ----------------------------------------------------------------------

 Structure from the checkpoint file:  "2003846667223680600001_intra_H_migration_6_12_IRC_R.chk"
 ------------------------------
 Gaussian input prepared by ASE
 ------------------------------
 Charge =  0 Multiplicity = 1

 SCF Done:  E(RM062X) =  -1199.88458672     A.U. after    8 cycles
 SCF Done:  E(RM062X) =  -1199.88467186     A.U. after    9 cycles
 SCF Done:  E(RM062X) =  -1199.88481306     A.U. after    9 cycles
 SCF Done:  E(RM062X) =  -1199.88500931     A.U. after    9 cycles
 SCF Done:  E(RM062X) =  -1199.88525930     A.U. after    9 cycles
 SCF Done:  E(RM062X) =  -1199.88556136     A.U. after    9 cycles
 SCF Done:  E(RM062X) =  -1199.88591346     A.U. after    9 cycles
 SCF Done:  E(RM062X) =  -1199.88631341     A.U. after    9 cycles
 SCF Done:  E(RM062X) =  -1199.88675891     A.U. after    9 cycles
 SCF Done:  E(RM062X) =  -1199.88724775     A.U. after    9 cycles
 SCF Done:  E(RM062X) =  -1199.93268239     A.U. after    8 cycles
 SCF Done:  E(RM062X) =  -1199.93290354     A.U. after    8 cycles
 SCF Done:  E(RM062X) =  -1199.93312001     A.U. after    8 cycles
 SCF Done:  E(RM062X) =  -1199.93333191     A.U. after    8 cycles
 SCF Done:  E(RM062X) =  -1199.93353934     A.U. after    8 cycles
 SCF Done:  E(RM062X) =  -1199.93374237     A.U. after    8 cycles
 SCF Done:  E(RM062X) =  -1199.93394111     A.U. after    8 cycles
 SCF Done:  E(RM062X) =  -1199.93413562     A.U. after    8 cycles
 SCF Done:  E(RM062X) =  -1199.93432597     A.U. after    8 cycles
 SCF Done:  E(RM062X) =  -1199.93451225     A.U. after    8 cycles

                          Input orientation:
 ---------------------------------------------------------------------
 Center     Atomic      Atomic             Coordinates (Angstroms)
 Number     Number       Type             X           Y           Z
 ---------------------------------------------------------------------
      1          6           0        0.983829   -0.804852   -0.757396
      2          6           0        0.171159    0.482103   -0.446589
      3          9           0        1.018017    1.489795   -0.248317
      4          9           0       -0.613810    0.753147   -1.487272
      5         16           0       -0.923199    0.273380    1.031853
      6          8           0       -2.050231   -0.501212    0.640304
      7          8           0       -0.068090   -0.089720    2.099723
      8          8           0       -1.566455    1.702305    1.164732
      9          9           0        1.933745   -0.982944    0.141303
     10          9           0        0.178707   -1.855346   -0.764182
     11          9           0        1.542033   -0.680216   -1.953439
     12          1           0       -2.494736    1.577512    0.913291
 ---------------------------------------------------------------------

 Normal termination of Gaussian 16 at Sat May 24 06:33:43 2025.
