 Gaussian 16, Revision C.01,
 Gaussian 16:  ES64L-G16RevC.01  3-Jul-2019

 -----------------------------------------------------------------
 #P M062X/Def2TZVPP Symm(None) scf(xqc) pop(None) freq opt(CalcFC)
 -----------------------------------------------------------------

 ------------------------------
 Gaussian input prepared by ASE
 ------------------------------
 Symbolic Z-matrix:
 Charge =  0 Multiplicity = 1

 SCF Done:  E(RM062X) =  -1199.85168917     A.U. after   13 cycles
 SCF Done:  E(RM062X) =  -1199.88820344     A.U. after   12 cycles
 SCF Done:  E(RM062X) =  -1199.92932332     A.U. after   13 cycles
 SCF Done:  E(RM062X) =  -1199.92931876     A.U. after   13 cycles
 SCF Done:  E(RM062X) =  -1199.93399609     A.U. after   12 cycles
 SCF Done:  E(RM062X) =  -1199.92556397     A.U. after   13 cycles
 SCF Done:  E(RM062X) =  -1199.93404932     A.U. after   13 cycles
 SCF Done:  E(RM062X) =  -1199.93601078     A.U. after   10 cycles
 SCF Done:  E(RM062X) =  -1199.93639958     A.U. after   11 cycles
 SCF Done:  E(RM062X) =  -1199.93586084     A.U. after   11 cycles
 SCF Done:  E(RM062X) =  -1199.94057097     A.U. after   10 cycles
 SCF Done:  E(RM062X) =  -1199.94059539     A.U. after   10 cycles
 SCF Done:  E(RM062X) =  -1199.94061077     A.U. after    9 cycles
 SCF Done:  E(RM062X) =  -1199.94065189     A.U. after   10 cycles
 SCF Done:  E(RM062X) =  -1199.94066892     A.U. after   10 cycles
 SCF Done:  E(RM062X) =  -1199.94067619     A.U. after   10 cycles
 SCF Done:  E(RM062X) =  -1199.94067740     A.U. after    8 cycles
 SCF Done:  E(RM062X) =  -1199.94067763     A.U. after    7 cycles
 SCF Done:  E(RM062X) =  -1199.94067765     A.U. after    7 cycles
 Optimization completed.
    -- Stationary point found.
 Normal termination of Gaussian 16 at Sat May 24 05:23:50 2025.

 ---------------------------------------------------------------------
 #P Geom=AllCheck Guess=TCheck SCRF=Check GenChk RM062X/def2TZVPP Freq
 ---------------------------------------------------------------------

 Structure from the checkpoint file:  "2003846667223680600001_r12_insertion_R_5_2_1_IRC_R_prod.chk"
 ------------------------------
 Gaussian input prepared by ASE
 ------------------------------
 Charge =  0 Multiplicity = 1

                          Input orientation:
 ---------------------------------------------------------------------
 Center     Atomic      Atomic             Coordinates (Angstroms)
 Number     Number       Type             X           Y           Z
 ---------------------------------------------------------------------
      1          6           0       -1.087359   -0.944082    0.054313
      2          6           0       -0.376872    0.428179    0.011506
      3          9           0       -0.704921    1.041305   -1.132639
      4          9           0       -0.792844    1.162746    1.039232
      5         16           0        1.461651    0.314090    0.078736
      6          8           0        1.829560    0.033509    1.411633
      7          8           0        1.868188   -0.467640   -1.033676
      8          8           0        1.798798    1.824930   -0.193355
      9          9           0       -0.829130   -1.634152   -1.042145
     10          9           0       -0.686007   -1.630703    1.111702
     11          9           0       -2.394654   -0.742444    0.138445
     12          1           0        1.870454    1.987108   -1.145232
 ---------------------------------------------------------------------

 SCF Done:  E(RM062X) =  -1199.94067765     A.U. after    1 cycles

 Isotropic polarizability for W=    0.000000       53.48 Bohr**3.
 End of Minotr F.D. properties file   721 does not exist.

                      1                      2                      3
                      A                      A                      A
 Frequencies --     25.7487                68.9393               127.7946
 Red. masses --     14.3448                14.1588                14.5962
 Frc consts  --      0.0056                 0.0396                 0.1404
 IR Inten    --      1.3442                 0.8704                 1.3970

                      4                      5                      6
                      A                      A                      A
 Frequencies --    194.5292               222.0155               237.7576
 Red. masses --      9.4418                16.8888                 7.9115
 Frc consts  --      0.2105                 0.4905                 0.2635
 IR Inten    --      7.7855                 1.5521                11.5218

                      7                      8                      9
                      A                      A                      A
 Frequencies --    283.6713               318.7520               323.5933
 Red. masses --     13.7623                 5.6311                17.9036
 Frc consts  --      0.6525                 0.3371                 1.1046
 IR Inten    --      0.3637                13.8384                 0.0417

                     10                     11                     12
                      A                      A                      A
 Frequencies --    367.6258               376.2821               446.5269
 Red. masses --      1.8249                13.9459                 4.6256
 Frc consts  --      0.1453                 1.1634                 0.5434
 IR Inten    --     54.1703                 2.0259                23.3247

                     13                     14                     15
                      A                      A                      A
 Frequencies --    499.7867               507.2524               544.0695
 Red. masses --      7.4439                14.2615                17.7461
 Frc consts  --      1.0955                 2.1620                 3.0950
 IR Inten    --      6.7920                33.7936                25.2555

                     16                     17                     18
                      A                      A                      A
 Frequencies --    609.0443               631.3443               664.1734
 Red. masses --     17.1475                19.4176                17.6544
 Frc consts  --      3.7476                 4.5601                 4.5884
 IR Inten    --      3.6953               110.2607                48.2172

                     19                     20                     21
                      A                      A                      A
 Frequencies --    781.9552               897.1240              1041.4571
 Red. masses --     17.3602                16.5770                14.0113
 Frc consts  --      6.2542                 7.8607                 8.9539
 IR Inten    --     19.5692               228.1030                28.9441

                     22                     23                     24
                      A                      A                      A
 Frequencies --   1140.6312              1200.7823              1257.4733
 Red. masses --      1.1813                13.5650                15.7640
 Frc consts  --      0.9055                11.5239                14.6864
 IR Inten    --     94.0462               244.3195                20.8983

                     25                     26                     27
                      A                      A                      A
 Frequencies --   1264.0505              1302.8142              1306.3203
 Red. masses --     13.4360                13.9052                13.1982
 Frc consts  --     12.6488                13.9057                13.2698
 IR Inten    --     86.8751               322.0932               234.4275

                     28                     29                     30
                      A                      A                      A
 Frequencies --   1389.7869              1505.1361              3809.4261
 Red. masses --     12.6886                15.5089                 1.0657
 Frc consts  --     14.4398                20.7006                 9.1115
 IR Inten    --     92.1056               296.3042               187.9752

 - Thermochemistry -
 -------------------
 Temperature   298.150 Kelvin.  Pressure   1.00000 Atm.
 Atom     1 has atomic number  6 and mass  12.00000

 Molecular mass:   199.95666 amu.
 Principal axes and moments of inertia in atomic units:
                           1         2         3
     Eigenvalues --  1118.866182147.849952266.38005
           X            0.88685  -0.46114  -0.02905
           Y            0.46204   0.88466   0.06245
           Z           -0.00310  -0.06881   0.99763
 This molecule is an asymmetric top.
 Rotational symmetry number  1.
 Warning -- assumption of classical behavior for rotation
           may cause significant error
 Rotational temperatures (Kelvin)      0.07741     0.04033     0.03822
 Rotational constants (GHZ):           1.61301     0.84025     0.79631
 Zero-point vibrational energy     139639.3 (Joules/Mol)
                                   33.37459 (Kcal/Mol)
 Warning -- explicit consideration of  16 degrees of freedom as
           vibrations may cause significant error
 Vibrational temperatures:     37.05    99.19   183.87   279.88   319.43
          (Kelvin)            342.08   408.14   458.61   465.58   528.93
                              541.39   642.45   719.08   729.82   782.79
                              876.28   908.36   955.60  1125.06  1290.76
                             1498.42  1641.11  1727.66  1809.22  1818.69
                             1874.46  1879.50  1999.59  2165.56  5480.91

 Zero-point correction=                           0.053186 (Hartree/Particle)
 Thermal correction to Energy=                    0.063487
 Thermal correction to Enthalpy=                  0.064431
 Thermal correction to Gibbs Free Energy=         0.016017
 Sum of electronic and zero-point Energies=          -1199.887492
 Sum of electronic and thermal Energies=             -1199.877190
 Sum of electronic and thermal Enthalpies=           -1199.876246
 Sum of electronic and thermal Free Energies=        -1199.924661

                     E (Thermal)             CV                S
                      KCal/Mol        Cal/Mol-Kelvin    Cal/Mol-Kelvin
 Total                   39.839             35.974            101.898
 Electronic               0.000              0.000              0.000
 Translational            0.889              2.981             41.783
 Rotational               0.889              2.981             30.078
 Vibrational             38.061             30.012             30.036
 Vibration     1          0.593              1.985              6.133
 Vibration     2          0.598              1.969              4.183
 Vibration     3          0.611              1.925              2.979
 Vibration     4          0.635              1.847              2.184
 Vibration     5          0.648              1.808              1.943
 Vibration     6          0.656              1.783              1.820
 Vibration     7          0.682              1.704              1.511
 Vibration     8          0.705              1.638              1.316
 Vibration     9          0.708              1.628              1.292
 Vibration    10          0.740              1.539              1.090
 Vibration    11          0.747              1.521              1.054
 Vibration    12          0.806              1.369              0.806
 Vibration    13          0.855              1.250              0.659
 Vibration    14          0.862              1.234              0.640
 Vibration    15          0.899              1.153              0.557
 Vibration    16          0.968              1.013              0.434

 Optimization completed.
    -- Stationary point found.
 Normal termination of Gaussian 16 at Sat May 24 05:28:23 2025.
