 Gaussian 16, Revision C.01,
 Gaussian 16:  ES64L-G16RevC.01  3-Jul-2019

 ----------------------------------------------------------------------
 #P M062X/Def2TZVPP Symm(None) scf(xqc) pop(None) opt(NoFreeze,TS,CalcA
 ll,NoEigentest,MaxCycle=999)
 ----------------------------------------------------------------------

 ------------------------------
 Gaussian input prepared by ASE
 ------------------------------
 Symbolic Z-matrix:
 Charge =  0 Multiplicity = 1

 SCF Done:  E(RM062X) =  -1199.71989434     A.U. after   19 cycles
 SCF Done:  E(RM062X) =  -1199.78002762     A.U. after   15 cycles
 SCF Done:  E(RM062X) =  -1199.83605233     A.U. after   14 cycles
 SCF Done:  E(RM062X) =  -1199.84659213     A.U. after   14 cycles
 SCF Done:  E(RM062X) =  -1199.84110921     A.U. after   15 cycles
 SCF Done:  E(RM062X) =  -1199.83199411     A.U. after   16 cycles
 SCF Done:  E(RM062X) =  -1199.82343937     A.U. after   16 cycles
 SCF Done:  E(RM062X) =  -1199.81852416     A.U. after   16 cycles
 SCF Done:  E(RM062X) =  -1199.81720266     A.U. after   15 cycles
 SCF Done:  E(RM062X) =  -1199.81696696     A.U. after   14 cycles
 SCF Done:  E(RM062X) =  -1199.81696626     A.U. after   10 cycles

 Isotropic polarizability for W=    0.000000       64.65 Bohr**3.
 End of Minotr F.D. properties file   721 does not exist.

 Optimization completed.
    -- Stationary point found.

                          Input orientation:
 ---------------------------------------------------------------------
 Center     Atomic      Atomic             Coordinates (Angstroms)
 Number     Number       Type             X           Y           Z
 ---------------------------------------------------------------------
      1          6           0       -0.475569   -1.430033    0.241345
      2          6           0       -0.369312    0.132726    0.091795
      3          9           0       -0.918768    0.505532   -1.032703
      4          9           0       -0.911362    0.757409    1.093675
      5         16           0        1.678067    0.621355    0.057781
      6          8           0        1.610396    0.337699    1.478615
      7          8           0        1.690545   -0.340948   -1.047199
      8          8           0        3.253243    0.997463    0.032220
      9          9           0       -0.429653   -1.997493   -0.942908
     10          9           0        0.424796   -1.954942    1.030724
     11          9           0       -1.684727   -1.638618    0.762831
     12          1           0        3.580277    0.889443   -0.871986
 ---------------------------------------------------------------------

 ******    1 imaginary frequencies (negative Signs) ******

                      1                      2                      3
                      A                      A                      A
 Frequencies --   -214.3014                44.2293                94.5538
 Red. masses --     12.9384                17.3944                12.5536
 Frc consts  --      0.3501                 0.0200                 0.0661
 IR Inten    --     53.8741                 0.3014                 4.0164

                      4                      5                      6
                      A                      A                      A
 Frequencies --    150.9759               204.6013               248.8796
 Red. masses --     14.3594                12.7130                16.9305
 Frc consts  --      0.1928                 0.3136                 0.6179
 IR Inten    --      5.9464                 0.4301                11.9639

                      7                      8                      9
                      A                      A                      A
 Frequencies --    254.9518               277.4538               286.3455
 Red. masses --     16.6224                15.3267                15.9462
 Frc consts  --      0.6366                 0.6952                 0.7703
 IR Inten    --     10.2211                 1.9947                15.8213

                     10                     11                     12
                      A                      A                      A
 Frequencies --    311.9211               380.5825               432.4632
 Red. masses --     17.9724                17.7855                 6.3261
 Frc consts  --      1.0303                 1.5178                 0.6971
 IR Inten    --      0.9513                 1.0076                17.7953

                     13                     14                     15
                      A                      A                      A
 Frequencies --    452.1116               542.1406               552.3790
 Red. masses --      1.6154                 3.0403                17.7337
 Frc consts  --      0.1945                 0.5265                 3.1880
 IR Inten    --     66.3876                28.5267                25.1982

                     16                     17                     18
                      A                      A                      A
 Frequencies --    599.0200               625.0082               654.5681
 Red. masses --     17.3294                17.3117                16.9962
 Frc consts  --      3.6637                 3.9844                 4.2905
 IR Inten    --      1.8245                96.9490                22.5618

                     19                     20                     21
                      A                      A                      A
 Frequencies --    731.0078               806.0875               857.1664
 Red. masses --     14.6199                14.9033                15.6060
 Frc consts  --      4.6030                 5.7055                 6.7557
 IR Inten    --    262.9387               133.2582               187.5301

                     22                     23                     24
                      A                      A                      A
 Frequencies --   1080.4233              1161.3644              1182.6273
 Red. masses --     14.7594                12.7331                 1.3503
 Frc consts  --     10.1510                10.1186                 1.1127
 IR Inten    --     30.5698               168.1497               113.6805

                     25                     26                     27
                      A                      A                      A
 Frequencies --   1275.4766              1301.7365              1329.9635
 Red. masses --     13.3338                 7.5202                12.9343
 Frc consts  --     12.7806                 7.5080                13.4794
 IR Inten    --    286.4369                 8.7870               278.1822

                     28                     29                     30
                      A                      A                      A
 Frequencies --   1346.5390              1377.5329              3810.6975
 Red. masses --     13.0815                10.5437                 1.0659
 Frc consts  --     13.9748                11.7882                 9.1195
 IR Inten    --    105.6938               537.3530               172.5726

 - Thermochemistry -
 -------------------
 Temperature   298.150 Kelvin.  Pressure   1.00000 Atm.
 Atom     1 has atomic number  6 and mass  12.00000

 Molecular mass:   199.95666 amu.
 Principal axes and moments of inertia in atomic units:
                           1         2         3
     Eigenvalues --  1085.453562322.732832413.57373
           X            0.85967  -0.49102   0.14098
           Y            0.50999   0.84093  -0.18097
           Z           -0.02969   0.22747   0.97333
 This molecule is an asymmetric top.
 Rotational symmetry number  1.
 Warning -- assumption of classical behavior for rotation
           may cause significant error
 Rotational temperatures (Kelvin)      0.07980     0.03729     0.03589
 Rotational constants (GHZ):           1.66266     0.77699     0.74775
    1 imaginary frequencies ignored.
 Zero-point vibrational energy     133819.1 (Joules/Mol)
                                   31.98353 (Kcal/Mol)
 Warning -- explicit consideration of  15 degrees of freedom as
           vibrations may cause significant error
 Vibrational temperatures:     63.64   136.04   217.22   294.38   358.08
          (Kelvin)            366.82   399.19   411.99   448.78   547.57
                              622.22   650.49   780.02   794.75   861.86
                              899.25   941.78  1051.76  1159.78  1233.27
                             1554.49  1670.94  1701.54  1835.13  1872.91
                             1913.52  1937.37  1981.96  5482.74

 Zero-point correction=                           0.050969 (Hartree/Particle)
 Thermal correction to Energy=                    0.060897
 Thermal correction to Enthalpy=                  0.061841
 Thermal correction to Gibbs Free Energy=         0.014754
 Sum of electronic and zero-point Energies=          -1199.765997
 Sum of electronic and thermal Energies=             -1199.756069
 Sum of electronic and thermal Enthalpies=           -1199.755125
 Sum of electronic and thermal Free Energies=        -1199.802212

                     E (Thermal)             CV                S
                      KCal/Mol        Cal/Mol-Kelvin    Cal/Mol-Kelvin
 Total                   38.213             35.105             99.103
 Electronic               0.000              0.000              0.000
 Translational            0.889              2.981             41.783
 Rotational               0.889              2.981             30.188
 Vibrational             36.436             29.143             27.131
 Vibration     1          0.595              1.980              5.060
 Vibration     2          0.603              1.953              3.564
 Vibration     3          0.618              1.902              2.660
 Vibration     4          0.640              1.833              2.091
 Vibration     5          0.662              1.765              1.739
 Vibration     6          0.665              1.754              1.696
 Vibration     7          0.678              1.715              1.549
 Vibration     8          0.684              1.699              1.495
 Vibration     9          0.700              1.651              1.352
 Vibration    10          0.750              1.512              1.037
 Vibration    11          0.793              1.400              0.851
 Vibration    12          0.811              1.356              0.789
 Vibration    13          0.897              1.157              0.561
 Vibration    14          0.908              1.134              0.539
 Vibration    15          0.957              1.034              0.451

 Normal termination of Gaussian 16 at Sat May 24 03:51:34 2025.
