 Gaussian 16, Revision C.01,
 Gaussian 16:  ES64L-G16RevC.01  3-Jul-2019

 ----------------------------------------------------------------------
 #P M062X/Def2TZVPP Symm(None) scf(xqc) pop(None) opt(NoFreeze,TS,CalcA
 ll,NoEigentest,MaxCycle=999)
 ----------------------------------------------------------------------

 ------------------------------
 Gaussian input prepared by ASE
 ------------------------------
 Symbolic Z-matrix:
 Charge =  0 Multiplicity = 1

 SCF Done:  E(RM062X) =  -1199.84759086     A.U. after   13 cycles
 SCF Done:  E(RM062X) =  -1199.90635956     A.U. after   12 cycles
 SCF Done:  E(RM062X) =  -1199.92788808     A.U. after   12 cycles
 SCF Done:  E(RM062X) =  -1199.93192125     A.U. after   13 cycles
 SCF Done:  E(RM062X) =  -1199.93484921     A.U. after   13 cycles
 SCF Done:  E(RM062X) =  -1199.93638275     A.U. after   12 cycles
 SCF Done:  E(RM062X) =  -1199.93649925     A.U. after   10 cycles
 SCF Done:  E(RM062X) =  -1199.93649942     A.U. after    6 cycles

 Isotropic polarizability for W=    0.000000       53.51 Bohr**3.
 End of Minotr F.D. properties file   721 does not exist.

 Optimization completed.
    -- Stationary point found.

                          Input orientation:
 ---------------------------------------------------------------------
 Center     Atomic      Atomic             Coordinates (Angstroms)
 Number     Number       Type             X           Y           Z
 ---------------------------------------------------------------------
      1          6           0       -0.619953   -1.364222    0.181309
      2          6           0        0.077965    0.017435   -0.095935
      3          9           0        0.041421    0.286767   -1.404384
      4          9           0       -0.558721    0.983031    0.558846
      5         16           0        1.848157    0.046612    0.414216
      6          8           0        1.884637   -0.007618    1.824513
      7          8           0        2.545683   -0.851763   -0.434782
      8          8           0        2.186777    1.522408   -0.010731
      9          9           0       -1.082227   -1.869035   -0.949535
     10          9           0        0.236221   -2.225580    0.712029
     11          9           0       -1.626521   -1.197005    1.020244
     12          1           0        2.514504    1.538562   -0.921594
 ---------------------------------------------------------------------

 ******    1 imaginary frequencies (negative Signs) ******

                      1                      2                      3
                      A                      A                      A
 Frequencies --    -52.2101                78.4703               145.3757
 Red. masses --     17.7415                11.7699                12.4963
 Frc consts  --      0.0285                 0.0427                 0.1556
 IR Inten    --      0.1492                 2.3713                 2.3781

                      4                      5                      6
                      A                      A                      A
 Frequencies --    187.8903               246.7142               285.8047
 Red. masses --     11.5375                 8.3068                13.5340
 Frc consts  --      0.2400                 0.2979                 0.6514
 IR Inten    --      5.6244                 9.1092                 1.9988

                      7                      8                      9
                      A                      A                      A
 Frequencies --    291.5858               318.2608               341.5541
 Red. masses --     16.4240                 4.5264                17.0812
 Frc consts  --      0.8227                 0.2701                 1.1740
 IR Inten    --      1.8900                18.9913                 0.3202

                     10                     11                     12
                      A                      A                      A
 Frequencies --    361.4997               382.2818               441.7730
 Red. masses --      1.9265                15.9361                 4.6128
 Frc consts  --      0.1483                 1.3721                 0.5304
 IR Inten    --     52.6720                 0.8291                20.2651

                     13                     14                     15
                      A                      A                      A
 Frequencies --    499.8683               507.9237               546.5873
 Red. masses --      7.1747                14.9008                17.8198
 Frc consts  --      1.0562                 2.2649                 3.1367
 IR Inten    --     20.1269                23.6375                27.2507

                     16                     17                     18
                      A                      A                      A
 Frequencies --    604.2312               631.1062               667.1850
 Red. masses --     17.1542                19.1599                17.6901
 Frc consts  --      3.6900                 4.4962                 4.6395
 IR Inten    --      3.3757               106.6387                46.5457

                     19                     20                     21
                      A                      A                      A
 Frequencies --    781.8755               895.7028              1030.9533
 Red. masses --     17.2978                16.5101                14.0877
 Frc consts  --      6.2304                 7.8042                 8.8220
 IR Inten    --     21.6037               231.0012                18.7296

                     22                     23                     24
                      A                      A                      A
 Frequencies --   1141.3043              1197.6890              1249.6611
 Red. masses --      1.1831                13.5797                16.2156
 Frc consts  --      0.9080                11.4770                14.9200
 IR Inten    --     92.1615               281.9321                 8.9004

                     25                     26                     27
                      A                      A                      A
 Frequencies --   1262.8763              1300.7688              1306.4838
 Red. masses --     13.2334                13.1748                13.6943
 Frc consts  --     12.4349                13.1339                13.7720
 IR Inten    --    142.1545               226.0928               284.2716

                     28                     29                     30
                      A                      A                      A
 Frequencies --   1356.6424              1502.0560              3810.2321
 Red. masses --     12.8941                15.3569                 1.0656
 Frc consts  --     13.9821                20.4140                 9.1152
 IR Inten    --     86.3694               290.0071               190.2496

 - Thermochemistry -
 -------------------
 Temperature   298.150 Kelvin.  Pressure   1.00000 Atm.
 Atom     1 has atomic number  6 and mass  12.00000

 Molecular mass:   199.95666 amu.
 Principal axes and moments of inertia in atomic units:
                           1         2         3
     Eigenvalues --  1124.764702157.221072286.27107
           X            0.85142  -0.44950  -0.27024
           Y            0.52086   0.78511   0.33513
           Z            0.06153  -0.42609   0.90258
 This molecule is an asymmetric top.
 Rotational symmetry number  1.
 Warning -- assumption of classical behavior for rotation
           may cause significant error
 Rotational temperatures (Kelvin)      0.07701     0.04015     0.03788
 Rotational constants (GHZ):           1.60455     0.83660     0.78938
    1 imaginary frequencies ignored.
 Zero-point vibrational energy     139809.7 (Joules/Mol)
                                   33.41532 (Kcal/Mol)
 Warning -- explicit consideration of  15 degrees of freedom as
           vibrations may cause significant error
 Vibrational temperatures:    112.90   209.16   270.33   354.97   411.21
          (Kelvin)            419.53   457.91   491.42   520.12   550.02
                              635.61   719.20   730.79   786.42   869.35
                              908.02   959.93  1124.94  1288.72  1483.31
                             1642.08  1723.21  1797.98  1817.00  1871.52
                             1879.74  1951.91  2161.12  5482.07

 Zero-point correction=                           0.053251 (Hartree/Particle)
 Thermal correction to Energy=                    0.062501
 Thermal correction to Enthalpy=                  0.063445
 Thermal correction to Gibbs Free Energy=         0.018437
 Sum of electronic and zero-point Energies=          -1199.883249
 Sum of electronic and thermal Energies=             -1199.873999
 Sum of electronic and thermal Enthalpies=           -1199.873054
 Sum of electronic and thermal Free Energies=        -1199.918063

                     E (Thermal)             CV                S
                      KCal/Mol        Cal/Mol-Kelvin    Cal/Mol-Kelvin
 Total                   39.220             33.845             94.728
 Electronic               0.000              0.000              0.000
 Translational            0.889              2.981             41.783
 Rotational               0.889              2.981             30.096
 Vibrational             37.442             27.884             22.849
 Vibration     1          0.600              1.964              3.929
 Vibration     2          0.617              1.908              2.732
 Vibration     3          0.633              1.856              2.249
 Vibration     4          0.661              1.768              1.754
 Vibration     5          0.684              1.700              1.499
 Vibration     6          0.687              1.689              1.465
 Vibration     7          0.705              1.639              1.319
 Vibration     8          0.721              1.592              1.205
 Vibration     9          0.736              1.552              1.116
 Vibration    10          0.752              1.508              1.030
 Vibration    11          0.802              1.379              0.821
 Vibration    12          0.855              1.250              0.658
 Vibration    13          0.863              1.232              0.639
 Vibration    14          0.902              1.147              0.551
 Vibration    15          0.963              1.023              0.442

 Normal termination of Gaussian 16 at Sat May 24 03:26:53 2025.
