 Gaussian 16, Revision C.01,
 Gaussian 16:  ES64L-G16RevC.01  3-Jul-2019

 ----------------------------------------------------------------------
 #P M062X/Def2TZVPP Symm(None) scf(xqc) pop(None) geom(AllCheck,NoKeepC
 onstants) guess(Read) irc(RCFC,forward,MaxPoints=100,StepSize=2)
 ----------------------------------------------------------------------

 Structure from the checkpoint file:  "2003846667223680600001_r12_insertion_R_3_2_5_IRC_F.chk"
 ------------------------------
 Gaussian input prepared by ASE
 ------------------------------
 Charge =  0 Multiplicity = 1

 SCF Done:  E(RM062X) =  -1199.79183346     A.U. after    9 cycles
 SCF Done:  E(RM062X) =  -1199.79188156     A.U. after   10 cycles
 SCF Done:  E(RM062X) =  -1199.79196306     A.U. after   10 cycles
 SCF Done:  E(RM062X) =  -1199.79207897     A.U. after   10 cycles
 SCF Done:  E(RM062X) =  -1199.79223023     A.U. after   10 cycles
 SCF Done:  E(RM062X) =  -1199.79241778     A.U. after   10 cycles
 SCF Done:  E(RM062X) =  -1199.79264245     A.U. after   10 cycles
 SCF Done:  E(RM062X) =  -1199.79290506     A.U. after   10 cycles
 SCF Done:  E(RM062X) =  -1199.79320634     A.U. after   10 cycles
 SCF Done:  E(RM062X) =  -1199.79354698     A.U. after   10 cycles
 SCF Done:  E(RM062X) =  -1199.89568435     A.U. after    9 cycles
 SCF Done:  E(RM062X) =  -1199.89670354     A.U. after    9 cycles
 SCF Done:  E(RM062X) =  -1199.89770360     A.U. after    9 cycles
 SCF Done:  E(RM062X) =  -1199.89868465     A.U. after    9 cycles
 SCF Done:  E(RM062X) =  -1199.89964676     A.U. after    9 cycles
 SCF Done:  E(RM062X) =  -1199.90059003     A.U. after    9 cycles
 SCF Done:  E(RM062X) =  -1199.90151457     A.U. after    9 cycles
 SCF Done:  E(RM062X) =  -1199.90242046     A.U. after    9 cycles
 SCF Done:  E(RM062X) =  -1199.90330782     A.U. after    9 cycles
 SCF Done:  E(RM062X) =  -1199.90417674     A.U. after    9 cycles

                          Input orientation:
 ---------------------------------------------------------------------
 Center     Atomic      Atomic             Coordinates (Angstroms)
 Number     Number       Type             X           Y           Z
 ---------------------------------------------------------------------
      1          6           0       -1.296818   -1.019892   -0.037929
      2          6           0       -0.378087    0.244492    0.259674
      3          9           0       -0.713451    1.112400   -0.709853
      4          9           0       -0.801773    0.674989    1.448108
      5         16           0        1.519198    0.514373    0.017268
      6          8           0        1.851635    1.284118    1.166733
      7          8           0        2.043232   -0.716189   -0.441175
      8          8           0        1.771823    1.486470   -1.205429
      9          9           0       -0.868562   -1.656381   -1.105966
     10          9           0       -1.490676   -1.893481    0.939207
     11          9           0       -2.485860   -0.470651   -0.288350
     12          1           0        1.711231    2.406335   -0.909814
 ---------------------------------------------------------------------

 Normal termination of Gaussian 16 at Sat May 24 05:05:09 2025.
