 Gaussian 16, Revision C.01,
 Gaussian 16:  ES64L-G16RevC.01  3-Jul-2019

 ----------------------------------------------------------------------
 #P M062X/Def2TZVPP Symm(None) scf(xqc) pop(None) geom(AllCheck,NoKeepC
 onstants) guess(Read) irc(RCFC,forward,MaxPoints=100,StepSize=2)
 ----------------------------------------------------------------------

 Structure from the checkpoint file:  "2003846667223680600001_intra_H_migration_5_12_IRC_F.chk"
 ------------------------------
 Gaussian input prepared by ASE
 ------------------------------
 Charge =  0 Multiplicity = 1

 SCF Done:  E(RM062X) =  -1199.88458773     A.U. after    8 cycles
 SCF Done:  E(RM062X) =  -1199.88467277     A.U. after    9 cycles
 SCF Done:  E(RM062X) =  -1199.88481406     A.U. after    9 cycles
 SCF Done:  E(RM062X) =  -1199.88501063     A.U. after    9 cycles
 SCF Done:  E(RM062X) =  -1199.88526095     A.U. after    9 cycles
 SCF Done:  E(RM062X) =  -1199.88556316     A.U. after    9 cycles
 SCF Done:  E(RM062X) =  -1199.88591524     A.U. after    9 cycles
 SCF Done:  E(RM062X) =  -1199.88631509     A.U. after    9 cycles
 SCF Done:  E(RM062X) =  -1199.88676062     A.U. after    9 cycles
 SCF Done:  E(RM062X) =  -1199.88724969     A.U. after    9 cycles
 SCF Done:  E(RM062X) =  -1199.93270202     A.U. after    7 cycles
 SCF Done:  E(RM062X) =  -1199.93292432     A.U. after    7 cycles
 SCF Done:  E(RM062X) =  -1199.93314201     A.U. after    7 cycles
 SCF Done:  E(RM062X) =  -1199.93335521     A.U. after    7 cycles
 SCF Done:  E(RM062X) =  -1199.93356399     A.U. after    7 cycles
 SCF Done:  E(RM062X) =  -1199.93376846     A.U. after    7 cycles
 SCF Done:  E(RM062X) =  -1199.93396869     A.U. after    7 cycles
 SCF Done:  E(RM062X) =  -1199.93416475     A.U. after    7 cycles
 SCF Done:  E(RM062X) =  -1199.93435672     A.U. after    7 cycles
 SCF Done:  E(RM062X) =  -1199.93454467     A.U. after    7 cycles

                          Input orientation:
 ---------------------------------------------------------------------
 Center     Atomic      Atomic             Coordinates (Angstroms)
 Number     Number       Type             X           Y           Z
 ---------------------------------------------------------------------
      1          6           0       -1.124864   -0.962389    0.075281
      2          6           0       -0.503289    0.448335   -0.028170
      3          9           0       -0.867934    1.005356   -1.180193
      4          9           0       -0.947470    1.190424    0.985674
      5         16           0        1.344641    0.514105    0.073033
      6          8           0        1.709228   -0.313520    1.161776
      7          8           0        1.828920   -0.003023   -1.329637
      8          8           0        1.686711    1.892931   -0.008455
      9          9           0       -0.535250   -1.768593   -0.797491
     10          9           0       -0.980574   -1.450144    1.291855
     11          9           0       -2.417045   -0.886428   -0.209633
     12          1           0        2.166760    0.786576   -1.780165
 ---------------------------------------------------------------------

 Normal termination of Gaussian 16 at Sat May 24 02:34:11 2025.
