 Gaussian 16, Revision C.01,
 Gaussian 16:  ES64L-G16RevC.01  3-Jul-2019

 ----------------------------------------------------------------------
 #P M062X/Def2TZVPP Symm(None) scf(xqc) pop(None) freq opt(CalcFC, Tigh
 t)
 ----------------------------------------------------------------------

 ------------------------------
 Gaussian input prepared by ASE
 ------------------------------
 Symbolic Z-matrix:
 Charge =  0 Multiplicity = 1

 SCF Done:  E(RM062X) =  -1199.71884566     A.U. after   14 cycles
 SCF Done:  E(RM062X) =  -1199.71884567     A.U. after    5 cycles
 Optimization completed.
    -- Stationary point found.
 Normal termination of Gaussian 16 at Sat May 24 08:03:24 2025.

 ---------------------------------------------------------------------
 #P Geom=AllCheck Guess=TCheck SCRF=Check GenChk RM062X/def2TZVPP Freq
 ---------------------------------------------------------------------

 Structure from the checkpoint file:  "2003885976044371740001_well.chk"
 ------------------------------
 Gaussian input prepared by ASE
 ------------------------------
 Charge =  0 Multiplicity = 1

                          Input orientation:
 ---------------------------------------------------------------------
 Center     Atomic      Atomic             Coordinates (Angstroms)
 Number     Number       Type             X           Y           Z
 ---------------------------------------------------------------------
      1          6           0        0.251989   -1.357323   -0.710054
      2          6           0        0.760388   -0.346175    0.266701
      3          9           0       -2.158867    0.658267    0.223832
      4          9           0        1.260546   -0.907232    1.385976
      5         16           0        0.219230    1.166912    0.444444
      6          8           0       -1.320013    1.492459    0.966104
      7          8           0        0.928889    1.983712    1.354120
      8          8           0       -0.016926    1.722892   -0.986179
      9          9           0       -0.149735   -0.786415   -1.853804
     10          9           0        1.227669   -2.216197   -1.001850
     11          9           0       -0.769301   -2.077791   -0.242440
     12          1           0        0.657259    1.395497   -1.600604
 ---------------------------------------------------------------------

 SCF Done:  E(RM062X) =  -1199.71884567     A.U. after    1 cycles

 Isotropic polarizability for W=    0.000000       59.26 Bohr**3.
 End of Minotr F.D. properties file   721 does not exist.

                      1                      2                      3
                      A                      A                      A
 Frequencies --     38.7373                67.5995               102.1462
 Red. masses --     15.5839                15.9961                17.3560
 Frc consts  --      0.0138                 0.0431                 0.1067
 IR Inten    --      0.8492                 0.9067                 0.6746

                      4                      5                      6
                      A                      A                      A
 Frequencies --    184.3020               196.4667               207.6938
 Red. masses --      6.1333                14.4114                13.3679
 Frc consts  --      0.1227                 0.3277                 0.3397
 IR Inten    --     11.3893                 5.2759                 4.7544

                      7                      8                      9
                      A                      A                      A
 Frequencies --    245.2735               303.6812               331.2369
 Red. masses --     16.8627                 1.4530                 5.5531
 Frc consts  --      0.5977                 0.0789                 0.3590
 IR Inten    --      3.8977                86.1054                17.4247

                     10                     11                     12
                      A                      A                      A
 Frequencies --    333.5012               346.5729               423.7258
 Red. masses --     15.8533                11.0774                14.2512
 Frc consts  --      1.0389                 0.7839                 1.5075
 IR Inten    --      4.4080                 3.7228                17.2435

                     13                     14                     15
                      A                      A                      A
 Frequencies --    467.0501               479.6782               503.6422
 Red. masses --     14.1461                 8.0962                17.3253
 Frc consts  --      1.8181                 1.0976                 2.5893
 IR Inten    --      7.1135                13.0591                17.4298

                     16                     17                     18
                      A                      A                      A
 Frequencies --    585.1213               604.5445               616.9002
 Red. masses --     15.9917                15.9196                16.6570
 Frc consts  --      3.2258                 3.4280                 3.7349
 IR Inten    --     28.0471                 5.8875                25.8887

                     19                     20                     21
                      A                      A                      A
 Frequencies --    739.7172               795.2550               948.5663
 Red. masses --     15.2129                15.0074                17.2044
 Frc consts  --      4.9045                 5.5920                 9.1206
 IR Inten    --    132.2320               109.1082               160.4576

                     22                     23                     24
                      A                      A                      A
 Frequencies --   1064.9764              1101.3889              1164.5266
 Red. masses --     15.9319                 3.3865                 1.6193
 Frc consts  --     10.6463                 2.4203                 1.2938
 IR Inten    --      8.1094                58.8123               226.7073

                     25                     26                     27
                      A                      A                      A
 Frequencies --   1221.0590              1237.8342              1320.8086
 Red. masses --     12.5236                12.8148                13.9199
 Frc consts  --     11.0015                11.5688                14.3076
 IR Inten    --    271.0725               261.2697                29.5610

                     28                     29                     30
                      A                      A                      A
 Frequencies --   1370.8745              1429.5609              3797.1579
 Red. masses --     12.3799                16.6842                 1.0654
 Frc consts  --     13.7076                20.0891                 9.0510
 IR Inten    --    382.2806               208.9159               184.2326

 - Thermochemistry -
 -------------------
 Temperature   298.150 Kelvin.  Pressure   1.00000 Atm.
 Atom     1 has atomic number  6 and mass  12.00000

 Molecular mass:   199.95666 amu.
 Principal axes and moments of inertia in atomic units:
                           1         2         3
     Eigenvalues --  1227.204482204.561202531.49821
           X           -0.20541   0.86753  -0.45299
           Y            0.90628  -0.00609  -0.42263
           Z            0.36940   0.49735   0.78498
 This molecule is an asymmetric top.
 Rotational symmetry number  1.
 Warning -- assumption of classical behavior for rotation
           may cause significant error
 Rotational temperatures (Kelvin)      0.07058     0.03929     0.03421
 Rotational constants (GHZ):           1.47061     0.81864     0.71291
 Zero-point vibrational energy     132962.5 (Joules/Mol)
                                   31.77881 (Kcal/Mol)
 Warning -- explicit consideration of  18 degrees of freedom as
           vibrations may cause significant error
 Vibrational temperatures:     55.73    97.26   146.97   265.17   282.67
          (Kelvin)            298.83   352.89   436.93   476.58   479.83
                              498.64   609.65   671.98   690.15   724.63
                              841.86   869.80   887.58  1064.29  1144.19
                             1364.78  1532.26  1584.65  1675.49  1756.83
                             1780.97  1900.35  1972.38  2056.82  5463.26

 Zero-point correction=                           0.050643 (Hartree/Particle)
 Thermal correction to Energy=                    0.061425
 Thermal correction to Enthalpy=                  0.062369
 Thermal correction to Gibbs Free Energy=         0.013131
 Sum of electronic and zero-point Energies=          -1199.668203
 Sum of electronic and thermal Energies=             -1199.657421
 Sum of electronic and thermal Enthalpies=           -1199.656477
 Sum of electronic and thermal Free Energies=        -1199.705715

                     E (Thermal)             CV                S
                      KCal/Mol        Cal/Mol-Kelvin    Cal/Mol-Kelvin
 Total                   38.544             37.391            103.630
 Electronic               0.000              0.000              0.000
 Translational            0.889              2.981             41.783
 Rotational               0.889              2.981             30.305
 Vibrational             36.767             31.429             31.541
 Vibration     1          0.594              1.981              5.323
 Vibration     2          0.598              1.970              4.222
 Vibration     3          0.604              1.947              3.413
 Vibration     4          0.631              1.861              2.284
 Vibration     5          0.636              1.845              2.166
 Vibration     6          0.641              1.829              2.064
 Vibration     7          0.660              1.771              1.764
 Vibration     8          0.695              1.667              1.397
 Vibration     9          0.714              1.613              1.254
 Vibration    10          0.715              1.609              1.243
 Vibration    11          0.725              1.582              1.182
 Vibration    12          0.786              1.419              0.879
 Vibration    13          0.824              1.323              0.746
 Vibration    14          0.836              1.295              0.711
 Vibration    15          0.859              1.242              0.649
 Vibration    16          0.942              1.064              0.476
 Vibration    17          0.963              1.022              0.442
 Vibration    18          0.977              0.996              0.421

 Optimization completed.
    -- Stationary point found.
 Normal termination of Gaussian 16 at Sat May 24 08:07:27 2025.
