 Gaussian 16, Revision C.01,
 Gaussian 16:  ES64L-G16RevC.01  3-Jul-2019

 ----------------------------------------------------------------------
 #P M062X/Def2TZVPP Symm(None) scf(xqc) pop(None) geom(AllCheck,NoKeepC
 onstants) guess(Read) irc(RCFC,forward,MaxPoints=100,StepSize=2)
 ----------------------------------------------------------------------

 Structure from the checkpoint file:  "2003846667223680600001_r12_insertion_R_6_5_7_IRC_F.chk"
 ------------------------------
 Gaussian input prepared by ASE
 ------------------------------
 Charge =  0 Multiplicity = 1

 SCF Done:  E(RM062X) =  -1199.74101097     A.U. after   14 cycles
 SCF Done:  E(RM062X) =  -1199.74137489     A.U. after   16 cycles
 SCF Done:  E(RM062X) =  -1199.74197598     A.U. after   16 cycles
 SCF Done:  E(RM062X) =  -1199.74280643     A.U. after   17 cycles
 SCF Done:  E(RM062X) =  -1199.74385599     A.U. after   17 cycles
 SCF Done:  E(RM062X) =  -1199.74511240     A.U. after   17 cycles
 SCF Done:  E(RM062X) =  -1199.74656184     A.U. after   17 cycles
 SCF Done:  E(RM062X) =  -1199.74818928     A.U. after   16 cycles
 SCF Done:  E(RM062X) =  -1199.74997892     A.U. after   16 cycles
 SCF Done:  E(RM062X) =  -1199.75191450     A.U. after   15 cycles
 SCF Done:  E(RM062X) =  -1199.87847823     A.U. after   10 cycles
 SCF Done:  E(RM062X) =  -1199.87946202     A.U. after   10 cycles
 SCF Done:  E(RM062X) =  -1199.88043854     A.U. after   10 cycles
 SCF Done:  E(RM062X) =  -1199.88140779     A.U. after   10 cycles
 SCF Done:  E(RM062X) =  -1199.88236977     A.U. after   10 cycles
 SCF Done:  E(RM062X) =  -1199.88332450     A.U. after   10 cycles
 SCF Done:  E(RM062X) =  -1199.88427198     A.U. after   10 cycles
 SCF Done:  E(RM062X) =  -1199.88521222     A.U. after   10 cycles
 SCF Done:  E(RM062X) =  -1199.88614522     A.U. after   10 cycles
 SCF Done:  E(RM062X) =  -1199.88707099     A.U. after   10 cycles

                          Input orientation:
 ---------------------------------------------------------------------
 Center     Atomic      Atomic             Coordinates (Angstroms)
 Number     Number       Type             X           Y           Z
 ---------------------------------------------------------------------
      1          6           0       -1.103574   -0.676311    0.639849
      2          6           0       -0.581043    0.380314   -0.452313
      3          9           0       -1.040767   -0.028135   -1.622423
      4          9           0       -1.115518    1.548327   -0.139783
      5         16           0        1.448214    0.363640   -0.456045
      6          8           0        1.384902   -1.054147   -0.337895
      7          8           0        2.617485    0.843013   -1.142658
      8          8           0        1.425513    1.229290    0.872871
      9          9           0       -0.853102   -1.929422    0.336136
     10          9           0       -0.625755   -0.401965    1.840930
     11          9           0       -2.431359   -0.549511    0.686653
     12          1           0        2.329686    1.481899    1.113821
 ---------------------------------------------------------------------

 Normal termination of Gaussian 16 at Sat May 24 05:50:31 2025.
