 Gaussian 16, Revision C.01,
 Gaussian 16:  ES64L-G16RevC.01  3-Jul-2019

 ----------------------------------------------------------------------
 #P M062X/Def2TZVPP Symm(None) scf(xqc) pop(None) opt(NoFreeze,TS,CalcA
 ll,NoEigentest,MaxCycle=999)
 ----------------------------------------------------------------------

 ------------------------------
 Gaussian input prepared by ASE
 ------------------------------
 Symbolic Z-matrix:
 Charge =  0 Multiplicity = 1

 SCF Done:  E(RM062X) =  -1199.68834229     A.U. after   16 cycles
 SCF Done:  E(RM062X) =  -1199.69903516     A.U. after   16 cycles
 SCF Done:  E(RM062X) =  -1199.72299939     A.U. after   16 cycles
 SCF Done:  E(RM062X) =  -1199.73998602     A.U. after   16 cycles
 SCF Done:  E(RM062X) =  -1199.74484260     A.U. after   14 cycles
 SCF Done:  E(RM062X) =  -1199.74665315     A.U. after   13 cycles
 SCF Done:  E(RM062X) =  -1199.74708928     A.U. after   12 cycles
 SCF Done:  E(RM062X) =  -1199.74712503     A.U. after   11 cycles
 SCF Done:  E(RM062X) =  -1199.74712503     A.U. after    8 cycles

 Isotropic polarizability for W=    0.000000       61.44 Bohr**3.
 End of Minotr F.D. properties file   721 does not exist.

 Optimization completed.
    -- Stationary point found.

                          Input orientation:
 ---------------------------------------------------------------------
 Center     Atomic      Atomic             Coordinates (Angstroms)
 Number     Number       Type             X           Y           Z
 ---------------------------------------------------------------------
      1          6           0       -0.868101   -1.466802   -0.190318
      2          6           0        0.263442    0.044998    0.722027
      3          9           0       -0.109969   -0.072797   -0.845823
      4          9           0       -0.268642    1.206620    1.025195
      5         16           0        2.056022    0.214204    0.593478
      6          8           0        2.507716    0.567195    1.888336
      7          8           0        2.534658   -0.929433   -0.108138
      8          8           0        2.256441    1.483961   -0.334626
      9          9           0       -1.253880   -1.839267   -1.383583
     10          9           0       -0.120998   -2.397660    0.289337
     11          9           0       -1.910152   -1.129377    0.490502
     12          1           0        2.361398    1.197956   -1.252192
 ---------------------------------------------------------------------

 ******    1 imaginary frequencies (negative Signs) ******

                      1                      2                      3
                      A                      A                      A
 Frequencies --   -652.7409                45.3509                62.9654
 Red. masses --     14.5743                16.8206                11.3178
 Frc consts  --      3.6586                 0.0204                 0.0264
 IR Inten    --     46.9674                 0.6056                 3.5063

                      4                      5                      6
                      A                      A                      A
 Frequencies --     75.0928               176.8902               186.7642
 Red. masses --     16.0895                 7.9004                14.6678
 Frc consts  --      0.0535                 0.1456                 0.3014
 IR Inten    --      0.5786                 8.9257                72.4734

                      7                      8                      9
                      A                      A                      A
 Frequencies --    207.5715               276.9310               303.0151
 Red. masses --     16.7705                 2.8773                 5.3373
 Frc consts  --      0.4257                 0.1300                 0.2887
 IR Inten    --      6.3087                24.9242                19.3770

                     10                     11                     12
                      A                      A                      A
 Frequencies --    342.2321               353.3692               418.9115
 Red. masses --     16.0376                 3.1908                 5.6731
 Frc consts  --      1.1067                 0.2348                 0.5866
 IR Inten    --      4.8810                21.4782               148.5826

                     13                     14                     15
                      A                      A                      A
 Frequencies --    444.4400               478.8311               516.8024
 Red. masses --     15.7831                 6.4095                13.7078
 Frc consts  --      1.8368                 0.8658                 2.1571
 IR Inten    --     48.1598                38.7527                20.2920

                     16                     17                     18
                      A                      A                      A
 Frequencies --    543.3096               606.3202               610.2216
 Red. masses --     16.7849                18.0432                17.0012
 Frc consts  --      2.9192                 3.9081                 3.7300
 IR Inten    --    125.0107                 2.0983               300.6132

                     19                     20                     21
                      A                      A                      A
 Frequencies --    662.0664               736.1132               806.6816
 Red. masses --     13.9608                14.2271                13.3290
 Frc consts  --      3.6055                 4.5421                 5.1104
 IR Inten    --     38.5583               246.2286                19.2682

                     22                     23                     24
                      A                      A                      A
 Frequencies --    908.7768               974.6448              1133.8158
 Red. masses --     18.0169                16.7172                 1.1869
 Frc consts  --      8.7669                 9.3563                 0.8990
 IR Inten    --    318.0276               274.8937                72.4246

                     25                     26                     27
                      A                      A                      A
 Frequencies --   1236.6974              1275.5117              1294.3904
 Red. masses --     16.4350                13.9502                13.6346
 Frc consts  --     14.8097                13.3721                13.4593
 IR Inten    --    237.1083               240.6861               232.4071

                     28                     29                     30
                      A                      A                      A
 Frequencies --   1434.3291              1479.7619              3825.9110
 Red. masses --     13.2637                14.8458                 1.0656
 Frc consts  --     16.0773                19.1530                 9.1898
 IR Inten    --    321.3743               329.1786               156.8378

 - Thermochemistry -
 -------------------
 Temperature   298.150 Kelvin.  Pressure   1.00000 Atm.
 Atom     1 has atomic number  6 and mass  12.00000

 Molecular mass:   199.95666 amu.
 Principal axes and moments of inertia in atomic units:
                           1         2         3
     Eigenvalues --  1004.024052630.110962850.99131
           X            0.82065  -0.57142   0.00317
           Y            0.51864   0.74250  -0.42391
           Z            0.23988   0.34953   0.90570
 This molecule is an asymmetric top.
 Rotational symmetry number  1.
 Warning -- assumption of classical behavior for rotation
           may cause significant error
 Rotational temperatures (Kelvin)      0.08627     0.03293     0.03038
 Rotational constants (GHZ):           1.79751     0.68618     0.63302
    1 imaginary frequencies ignored.
 Zero-point vibrational energy     128106.4 (Joules/Mol)
                                   30.61817 (Kcal/Mol)
 Warning -- explicit consideration of  17 degrees of freedom as
           vibrations may cause significant error
 Vibrational temperatures:     65.25    90.59   108.04   254.51   268.71
          (Kelvin)            298.65   398.44   435.97   492.40   508.42
                              602.72   639.45   688.93   743.56   781.70
                              872.36   877.97   952.57  1059.10  1160.63
                             1307.53  1402.30  1631.31  1779.33  1835.18
                             1862.34  2063.68  2129.05  5504.63

 Zero-point correction=                           0.048793 (Hartree/Particle)
 Thermal correction to Energy=                    0.059370
 Thermal correction to Enthalpy=                  0.060314
 Thermal correction to Gibbs Free Energy=         0.011249
 Sum of electronic and zero-point Energies=          -1199.698332
 Sum of electronic and thermal Energies=             -1199.687755
 Sum of electronic and thermal Enthalpies=           -1199.686811
 Sum of electronic and thermal Free Energies=        -1199.735876

                     E (Thermal)             CV                S
                      KCal/Mol        Cal/Mol-Kelvin    Cal/Mol-Kelvin
 Total                   37.255             36.594            103.268
 Electronic               0.000              0.000              0.000
 Translational            0.889              2.981             41.783
 Rotational               0.889              2.981             30.399
 Vibrational             35.478             30.632             31.085
 Vibration     1          0.595              1.979              5.010
 Vibration     2          0.597              1.972              4.362
 Vibration     3          0.599              1.966              4.015
 Vibration     4          0.628              1.871              2.361
 Vibration     5          0.632              1.858              2.260
 Vibration     6          0.641              1.829              2.065
 Vibration     7          0.678              1.716              1.553
 Vibration     8          0.694              1.668              1.400
 Vibration     9          0.721              1.591              1.202
 Vibration    10          0.730              1.568              1.151
 Vibration    11          0.782              1.429              0.896
 Vibration    12          0.804              1.373              0.813
 Vibration    13          0.835              1.297              0.713
 Vibration    14          0.872              1.213              0.617
 Vibration    15          0.898              1.154              0.558
 Vibration    16          0.965              1.018              0.439
 Vibration    17          0.969              1.010              0.432

 Normal termination of Gaussian 16 at Sat May 24 03:21:52 2025.
