 Gaussian 16, Revision C.01,
 Gaussian 16:  ES64L-G16RevC.01  3-Jul-2019

 ----------------------------------------------------------------------
 #P mp2/6-31G Symm(None) scf(xqc) pop(None) guess(Mix,Always) freq opt(
 CalcFC)
 ----------------------------------------------------------------------

 ------------------------------
 Gaussian input prepared by ASE
 ------------------------------
 Symbolic Z-matrix:
 Charge =  0 Multiplicity = 1

 SCF Done:  E(RHF) =  -1194.95761985     A.U. after   19 cycles
 E2 =    -0.1285892941D+01 EUMP2 =    -0.11962435127919D+04
 E2 =    -0.1285892941D+01 EUMP2 =    -0.11962435127919D+04
 SCF Done:  E(RHF) =  -1194.96616600     A.U. after   19 cycles
 E2 =    -0.1287610306D+01 EUMP2 =    -0.11962537763052D+04
 SCF Done:  E(RHF) =  -1194.96591703     A.U. after   18 cycles
 E2 =    -0.1289037409D+01 EUMP2 =    -0.11962549544374D+04
 SCF Done:  E(RHF) =  -1194.96643552     A.U. after   19 cycles
 E2 =    -0.1289148291D+01 EUMP2 =    -0.11962555838129D+04
 SCF Done:  E(RHF) =  -1194.96656595     A.U. after   19 cycles
 E2 =    -0.1289177336D+01 EUMP2 =    -0.11962557432835D+04
 SCF Done:  E(RHF) =  -1194.96655877     A.U. after   18 cycles
 E2 =    -0.1289290556D+01 EUMP2 =    -0.11962558493224D+04
 SCF Done:  E(RHF) =  -1194.96647323     A.U. after   18 cycles
 E2 =    -0.1289395617D+01 EUMP2 =    -0.11962558688474D+04
 SCF Done:  E(RHF) =  -1194.96644491     A.U. after   18 cycles
 E2 =    -0.1289424925D+01 EUMP2 =    -0.11962558698392D+04
 SCF Done:  E(RHF) =  -1194.96644828     A.U. after   18 cycles
 E2 =    -0.1289421592D+01 EUMP2 =    -0.11962558698738D+04
 Optimization completed.
    -- Stationary point found.
 Normal termination of Gaussian 16 at Sat May 24 03:46:24 2025.

 -------------------------------------------------------------------
 #P Geom=AllCheck Guess=TCheck SCRF=Check GenChk RMP2(FC)/6-31G Freq
 -------------------------------------------------------------------

 Structure from the checkpoint file:  "2003846667223680600001_R_Addition_MultipleBond_5_8_12_IRC_R_prod.chk"
 ------------------------------
 Gaussian input prepared by ASE
 ------------------------------
 Charge =  0 Multiplicity = 1

                          Input orientation:
 ---------------------------------------------------------------------
 Center     Atomic      Atomic             Coordinates (Angstroms)
 Number     Number       Type             X           Y           Z
 ---------------------------------------------------------------------
      1          6           0       -1.210962   -0.953945    0.146393
      2          6           0       -0.561860    0.409717   -0.140263
      3          9           0       -0.890686    0.837766   -1.420725
      4          9           0       -0.942692    1.333644    0.820123
      5         16           0        1.439483    0.318880   -0.126061
      6          8           0        1.914059   -0.341622    1.240373
      7          8           0        1.983908   -0.194757   -1.535663
      8          8           0        1.553391    2.134544   -0.075623
      9          9           0       -0.608322   -1.923876   -0.654162
     10          9           0       -1.040380   -1.297472    1.478932
     11          9           0       -2.570368   -0.905647   -0.143598
     12          1           0        2.376327    2.399313   -0.567978
 ---------------------------------------------------------------------

 SCF Done:  E(RHF) =  -1194.96644828     A.U. after    1 cycles
 E2 =    -0.1289421588D+01 EUMP2 =    -0.11962558698702D+04
 E2 =    -0.1289421588D+01 EUMP2 =    -0.11962558698702D+04

                      1                      2                      3
                      A                      A                      A
 Frequencies --     33.0993                57.5476               117.4254
 Red. masses --     12.6927                14.0845                13.2428
 Frc consts  --      0.0082                 0.0275                 0.1076
 IR Inten    --      1.6926                 0.8613                 0.7324

                      4                      5                      6
                      A                      A                      A
 Frequencies --    141.9168               152.8883               206.8061
 Red. masses --      6.4452                 2.5175                 3.4855
 Frc consts  --      0.0765                 0.0347                 0.0878
 IR Inten    --     22.5850                50.8962                40.3227

                      7                      8                      9
                      A                      A                      A
 Frequencies --    211.3123               219.6959               258.8972
 Red. masses --     12.6533                 7.0226                11.7060
 Frc consts  --      0.3329                 0.1997                 0.4623
 IR Inten    --     12.2269                 1.9299                14.8980

                     10                     11                     12
                      A                      A                      A
 Frequencies --    291.6124               339.7178               345.8539
 Red. masses --      7.8687                11.9484                18.0455
 Frc consts  --      0.3942                 0.8124                 1.2718
 IR Inten    --     12.8577                27.8520                 1.6027

                     13                     14                     15
                      A                      A                      A
 Frequencies --    366.3837               415.0052               454.8275
 Red. masses --      9.2383                17.2982                16.1404
 Frc consts  --      0.7307                 1.7553                 1.9672
 IR Inten    --     23.4995                 1.5315               105.5876

                     16                     17                     18
                      A                      A                      A
 Frequencies --    493.4660               559.1654               576.3089
 Red. masses --     16.5953                17.7325                16.1054
 Frc consts  --      2.3809                 3.2666                 3.1516
 IR Inten    --      9.8359                 3.1283                87.1225

                     19                     20                     21
                      A                      A                      A
 Frequencies --    615.7943               689.2029               903.0688
 Red. masses --     18.3692                17.1418                13.5812
 Frc consts  --      4.1040                 4.7973                 6.5258
 IR Inten    --    150.0663                 4.7086                94.4125

                     22                     23                     24
                      A                      A                      A
 Frequencies --    973.5240              1076.1717              1099.5798
 Red. masses --     12.2437                 2.3077                 5.5974
 Frc consts  --      6.8369                 1.5747                 3.9874
 IR Inten    --     61.7387               224.6713                33.3211

                     25                     26                     27
                      A                      A                      A
 Frequencies --   1146.6088              1199.8049              1203.5075
 Red. masses --      2.7999                12.2907                12.9501
 Frc consts  --      2.1688                10.4243                11.0515
 IR Inten    --     85.3459               148.8537                94.5387

                     28                     29                     30
                      A                      A                      A
 Frequencies --   1219.9201              1313.5119              3498.1925
 Red. masses --     13.0571                11.5200                 1.0661
 Frc consts  --     11.4488                11.7104                 7.6865
 IR Inten    --    249.8196               133.3573                96.3778

 - Thermochemistry -
 -------------------
 Temperature   298.150 Kelvin.  Pressure   1.00000 Atm.
 Atom     1 has atomic number  6 and mass  12.00000

 Molecular mass:   199.95666 amu.
 Principal axes and moments of inertia in atomic units:
                           1         2         3
     Eigenvalues --  1289.732142371.348882518.90237
           X            0.88514  -0.46532   0.00277
           Y            0.45494   0.86663   0.20489
           Z           -0.09774  -0.18010   0.97878
 This molecule is an asymmetric top.
 Rotational symmetry number  1.
 Warning -- assumption of classical behavior for rotation
           may cause significant error
 Rotational temperatures (Kelvin)      0.06716     0.03653     0.03439
 Rotational constants (GHZ):           1.39931     0.76106     0.71648
 Zero-point vibrational energy     120708.1 (Joules/Mol)
                                   28.84993 (Kcal/Mol)
 Warning -- explicit consideration of  19 degrees of freedom as
           vibrations may cause significant error
 Vibrational temperatures:     47.62    82.80   168.95   204.19   219.97
          (Kelvin)            297.55   304.03   316.09   372.50   419.57
                              488.78   497.61   527.14   597.10   654.40
                              709.99   804.51   829.18   885.99   991.61
                             1299.31  1400.68  1548.37  1582.05  1649.71
                             1726.25  1731.58  1755.19  1889.85  5033.12

 Zero-point correction=                           0.045975 (Hartree/Particle)
 Thermal correction to Energy=                    0.057743
 Thermal correction to Enthalpy=                  0.058687
 Thermal correction to Gibbs Free Energy=         0.007218
 Sum of electronic and zero-point Energies=          -1196.209895
 Sum of electronic and thermal Energies=             -1196.198127
 Sum of electronic and thermal Enthalpies=           -1196.197183
 Sum of electronic and thermal Free Energies=        -1196.248652

                     E (Thermal)             CV                S
                      KCal/Mol        Cal/Mol-Kelvin    Cal/Mol-Kelvin
 Total                   36.234             39.859            108.325
 Electronic               0.000              0.000              0.000
 Translational            0.889              2.981             41.783
 Rotational               0.889              2.981             30.422
 Vibrational             34.457             33.897             36.119
 Vibration     1          0.594              1.983              5.634
 Vibration     2          0.596              1.974              4.540
 Vibration     3          0.608              1.935              3.142
 Vibration     4          0.615              1.911              2.778
 Vibration     5          0.619              1.899              2.636
 Vibration     6          0.641              1.830              2.072
 Vibration     7          0.643              1.824              2.032
 Vibration     8          0.647              1.811              1.962
 Vibration     9          0.668              1.748              1.669
 Vibration    10          0.687              1.689              1.465
 Vibration    11          0.720              1.596              1.213
 Vibration    12          0.724              1.584              1.185
 Vibration    13          0.739              1.541              1.095
 Vibration    14          0.778              1.438              0.909
 Vibration    15          0.813              1.350              0.781
 Vibration    16          0.849              1.265              0.675
 Vibration    17          0.915              1.120              0.526
 Vibration    18          0.933              1.083              0.492
 Vibration    19          0.975              0.998              0.423

 Optimization completed.
    -- Stationary point found.
 Normal termination of Gaussian 16 at Sat May 24 03:47:02 2025.
