 Gaussian 16, Revision C.01,
 Gaussian 16:  ES64L-G16RevC.01  3-Jul-2019

 -----------------------------------------------------------------
 #P M062X/Def2TZVPP Symm(None) scf(xqc) pop(None) freq opt(CalcFC)
 -----------------------------------------------------------------

 ------------------------------
 Gaussian input prepared by ASE
 ------------------------------
 Symbolic Z-matrix:
 Charge =  0 Multiplicity = 1

 SCF Done:  E(RM062X) =  -1199.91131355     A.U. after   13 cycles
 SCF Done:  E(RM062X) =  -1199.92906339     A.U. after   12 cycles
 SCF Done:  E(RM062X) =  -1199.92628872     A.U. after   13 cycles
 SCF Done:  E(RM062X) =  -1199.93382335     A.U. after   13 cycles
 SCF Done:  E(RM062X) =  -1199.93340540     A.U. after   14 cycles
 SCF Done:  E(RM062X) =  -1199.93220407     A.U. after   13 cycles
 SCF Done:  E(RM062X) =  -1199.93319491     A.U. after   12 cycles
 SCF Done:  E(RM062X) =  -1199.93425812     A.U. after   11 cycles
 SCF Done:  E(RM062X) =  -1199.93455761     A.U. after   11 cycles
 SCF Done:  E(RM062X) =  -1199.93465907     A.U. after   11 cycles
 SCF Done:  E(RM062X) =  -1199.93535720     A.U. after   13 cycles
 SCF Done:  E(RM062X) =  -1199.92967052     A.U. after   14 cycles
 SCF Done:  E(RM062X) =  -1199.93641813     A.U. after   12 cycles
 SCF Done:  E(RM062X) =  -1199.93675307     A.U. after   11 cycles
 SCF Done:  E(RM062X) =  -1199.93687358     A.U. after   11 cycles
 SCF Done:  E(RM062X) =  -1199.93693894     A.U. after   10 cycles
 SCF Done:  E(RM062X) =  -1199.93695054     A.U. after    8 cycles
 SCF Done:  E(RM062X) =  -1199.93695132     A.U. after    7 cycles
 Optimization completed.
    -- Stationary point found.
 Normal termination of Gaussian 16 at Sat May 24 06:42:20 2025.

 ---------------------------------------------------------------------
 #P Geom=AllCheck Guess=TCheck SCRF=Check GenChk RM062X/def2TZVPP Freq
 ---------------------------------------------------------------------

 Structure from the checkpoint file:  "2003846667223680600001_intra_H_migration_suprafacial_6_12_IRC_R_prod.chk"
 ------------------------------
 Gaussian input prepared by ASE
 ------------------------------
 Charge =  0 Multiplicity = 1

                          Input orientation:
 ---------------------------------------------------------------------
 Center     Atomic      Atomic             Coordinates (Angstroms)
 Number     Number       Type             X           Y           Z
 ---------------------------------------------------------------------
      1          6           0        0.855950   -1.123807   -0.528369
      2          6           0        0.142235    0.192116   -0.919444
      3          9           0        0.845744    0.771421   -1.883096
      4          9           0       -1.067626   -0.091299   -1.379230
      5         16           0       -0.773892    0.939547    1.477794
      6          8           0        0.105234    1.097382    0.124402
      7          8           0       -1.968111    0.240365    1.194065
      8          8           0       -0.739468    2.225095    2.056229
      9          9           0        2.088216   -0.860481   -0.119777
     10          9           0        0.197826   -1.711429    0.469236
     11          9           0        0.900401   -1.944287   -1.559330
     12          1           0        0.057015    0.132054    2.155299
 ---------------------------------------------------------------------

 SCF Done:  E(RM062X) =  -1199.93695132     A.U. after    1 cycles

 Isotropic polarizability for W=    0.000000       53.30 Bohr**3.
 End of Minotr F.D. properties file   721 does not exist.

                      1                      2                      3
                      A                      A                      A
 Frequencies --     43.7751                60.7938               100.6752
 Red. masses --     16.5223                10.9504                13.6866
 Frc consts  --      0.0187                 0.0238                 0.0817
 IR Inten    --      0.6155                 3.0778                 2.1602

                      4                      5                      6
                      A                      A                      A
 Frequencies --    163.3787               219.8810               221.8491
 Red. masses --     17.2345                18.5223                15.0202
 Frc consts  --      0.2710                 0.5276                 0.4356
 IR Inten    --      0.0409                 2.0669                 2.2815

                      7                      8                      9
                      A                      A                      A
 Frequencies --    320.2782               323.3394               354.9333
 Red. masses --     17.8427                16.0588                16.4489
 Frc consts  --      1.0784                 0.9892                 1.2209
 IR Inten    --      0.1313                 2.5175                 2.8823

                     10                     11                     12
                      A                      A                      A
 Frequencies --    392.0713               439.4637               521.0041
 Red. masses --     16.1505                16.9458                14.1576
 Frc consts  --      1.4627                 1.9282                 2.2642
 IR Inten    --      5.4389                 1.6089                72.1497

                     13                     14                     15
                      A                      A                      A
 Frequencies --    555.5833               590.5319               614.9482
 Red. masses --     16.7996                16.8654                16.2170
 Frc consts  --      3.0553                 3.4652                 3.6133
 IR Inten    --      9.4265                24.2418                56.0243

                     16                     17                     18
                      A                      A                      A
 Frequencies --    668.8538               694.9247               789.3960
 Red. masses --     16.3506                15.7898                17.4644
 Frc consts  --      4.3097                 4.4926                 6.4120
 IR Inten    --      9.2796                44.7458                35.9988

                     19                     20                     21
                      A                      A                      A
 Frequencies --    930.3553              1081.2160              1150.1399
 Red. masses --     15.8462                 1.8361                 2.4932
 Frc consts  --      8.0811                 1.2646                 1.9432
 IR Inten    --    140.4334               274.5610               160.6205

                     22                     23                     24
                      A                      A                      A
 Frequencies --   1154.6407              1214.8941              1277.6554
 Red. masses --      1.1186                 9.4689                12.2708
 Frc consts  --      0.8786                 8.2343                11.8019
 IR Inten    --      6.6414               366.2418               165.7884

                     25                     26                     27
                      A                      A                      A
 Frequencies --   1282.4485              1299.8646              1313.5419
 Red. masses --     10.8389                12.8579                13.0890
 Frc consts  --     10.5030                12.8002                13.3059
 IR Inten    --     70.3106               340.5241               321.2568

                     28                     29                     30
                      A                      A                      A
 Frequencies --   1438.5208              1513.5415              2685.2435
 Red. masses --     12.5209                19.5422                 1.0429
 Frc consts  --     15.2658                26.3762                 4.4306
 IR Inten    --      6.7454               301.0904                10.0732

 - Thermochemistry -
 -------------------
 Temperature   298.150 Kelvin.  Pressure   1.00000 Atm.
 Atom     1 has atomic number  6 and mass  12.00000

 Molecular mass:   199.95666 amu.
 Principal axes and moments of inertia in atomic units:
                           1         2         3
     Eigenvalues --  1050.963002490.258112617.29030
           X           -0.48626  -0.07660   0.87045
           Y            0.58214   0.71450   0.38807
           Z            0.65167  -0.69543   0.30284
 This molecule is an asymmetric top.
 Rotational symmetry number  1.
 Warning -- assumption of classical behavior for rotation
           may cause significant error
 Rotational temperatures (Kelvin)      0.08241     0.03478     0.03309
 Rotational constants (GHZ):           1.71723     0.72472     0.68955
 Zero-point vibrational energy     140069.2 (Joules/Mol)
                                   33.47734 (Kcal/Mol)
 Warning -- explicit consideration of  15 degrees of freedom as
           vibrations may cause significant error
 Vibrational temperatures:     62.98    87.47   144.85   235.07   316.36
          (Kelvin)            319.19   460.81   465.21   510.67   564.10
                              632.29   749.61   799.36   849.64   884.77
                              962.33   999.84  1135.76  1338.57  1555.63
                             1654.79  1661.27  1747.96  1838.26  1845.16
                             1870.22  1889.89  2069.71  2177.65  3863.47

 Zero-point correction=                           0.053350 (Hartree/Particle)
 Thermal correction to Energy=                    0.063210
 Thermal correction to Enthalpy=                  0.064154
 Thermal correction to Gibbs Free Energy=         0.016452
 Sum of electronic and zero-point Energies=          -1199.883602
 Sum of electronic and thermal Energies=             -1199.873742
 Sum of electronic and thermal Enthalpies=           -1199.872798
 Sum of electronic and thermal Free Energies=        -1199.920499

                     E (Thermal)             CV                S
                      KCal/Mol        Cal/Mol-Kelvin    Cal/Mol-Kelvin
 Total                   39.665             34.048            100.397
 Electronic               0.000              0.000              0.000
 Translational            0.889              2.981             41.783
 Rotational               0.889              2.981             30.305
 Vibrational             37.887             28.087             28.308
 Vibration     1          0.595              1.980              5.080
 Vibration     2          0.597              1.973              4.431
 Vibration     3          0.604              1.949              3.441
 Vibration     4          0.623              1.887              2.510
 Vibration     5          0.647              1.811              1.960
 Vibration     6          0.648              1.808              1.944
 Vibration     7          0.706              1.635              1.309
 Vibration     8          0.708              1.629              1.293
 Vibration     9          0.731              1.565              1.144
 Vibration    10          0.760              1.487              0.992
 Vibration    11          0.799              1.384              0.828
 Vibration    12          0.876              1.203              0.608
 Vibration    13          0.911              1.127              0.533
 Vibration    14          0.948              1.052              0.466
 Vibration    15          0.974              1.000              0.425

 Optimization completed.
    -- Stationary point found.
 Normal termination of Gaussian 16 at Sat May 24 06:46:27 2025.
