 Gaussian 16, Revision C.01,
 Gaussian 16:  ES64L-G16RevC.01  3-Jul-2019

 -----------------------------------------------------------------
 #P M062X/Def2TZVPP Symm(None) scf(xqc) pop(None) freq opt(CalcFC)
 -----------------------------------------------------------------

 ------------------------------
 Gaussian input prepared by ASE
 ------------------------------
 Symbolic Z-matrix:
 Charge =  0 Multiplicity = 1

 SCF Done:  E(RM062X) =  -1199.94039408     A.U. after   13 cycles
 SCF Done:  E(RM062X) =  -1199.94055577     A.U. after   10 cycles
 SCF Done:  E(RM062X) =  -1199.94055676     A.U. after    8 cycles
 Optimization completed.
    -- Stationary point found.
 Normal termination of Gaussian 16 at Sat May 24 07:12:16 2025.

 ---------------------------------------------------------------------
 #P Geom=AllCheck Guess=TCheck SCRF=Check GenChk RM062X/def2TZVPP Freq
 ---------------------------------------------------------------------

 Structure from the checkpoint file:  "2003846667223680600001_intra_H_migration_6_12_IRC_F_prod.chk"
 ------------------------------
 Gaussian input prepared by ASE
 ------------------------------
 Charge =  0 Multiplicity = 1

                          Input orientation:
 ---------------------------------------------------------------------
 Center     Atomic      Atomic             Coordinates (Angstroms)
 Number     Number       Type             X           Y           Z
 ---------------------------------------------------------------------
      1          6           0        0.971870   -0.796971   -0.735688
      2          6           0        0.147383    0.479592   -0.450622
      3          9           0        0.983136    1.505856   -0.317139
      4          9           0       -0.669836    0.704002   -1.486154
      5         16           0       -0.888715    0.410180    1.073671
      6          8           0       -2.028806   -0.559400    0.597510
      7          8           0       -0.146639   -0.262273    2.069336
      8          8           0       -1.422524    1.714657    1.233534
      9          9           0        1.924058   -0.945480    0.164804
     10          9           0        0.183766   -1.862151   -0.728081
     11          9           0        1.527202   -0.683104   -1.934888
     12          1           0       -2.745765   -0.056606    0.184352
 ---------------------------------------------------------------------

 SCF Done:  E(RM062X) =  -1199.94055676     A.U. after    1 cycles

 Isotropic polarizability for W=    0.000000       53.52 Bohr**3.
 End of Minotr F.D. properties file   721 does not exist.

                      1                      2                      3
                      A                      A                      A
 Frequencies --     43.8318                71.2770               135.7440
 Red. masses --     13.5461                15.6894                16.2225
 Frc consts  --      0.0153                 0.0470                 0.1761
 IR Inten    --      1.9983                 0.6152                 0.6478

                      4                      5                      6
                      A                      A                      A
 Frequencies --    192.1578               222.3361               241.2544
 Red. masses --      5.2410                17.3927                13.8870
 Frc consts  --      0.1140                 0.5066                 0.4762
 IR Inten    --     15.5075                 1.2487                 8.0337

                      7                      8                      9
                      A                      A                      A
 Frequencies --    286.3189               314.7626               320.0193
 Red. masses --      9.4095                13.1566                 3.9231
 Frc consts  --      0.4545                 0.7680                 0.2367
 IR Inten    --      1.3818                 1.6288                19.9804

                     10                     11                     12
                      A                      A                      A
 Frequencies --    345.6549               378.3214               446.8501
 Red. masses --      2.3984                 8.7814                14.0904
 Frc consts  --      0.1688                 0.7405                 1.6577
 IR Inten    --     41.9477                 6.0883                11.4800

                     13                     14                     15
                      A                      A                      A
 Frequencies --    472.6753               529.1138               543.0353
 Red. masses --      4.5349                14.4439                17.8951
 Frc consts  --      0.5970                 2.3825                 3.1091
 IR Inten    --     29.1351                17.5380                20.2606

                     16                     17                     18
                      A                      A                      A
 Frequencies --    609.7725               630.4589               664.4602
 Red. masses --     17.2507                19.2873                17.4072
 Frc consts  --      3.7791                 4.5169                 4.5281
 IR Inten    --      5.3210               108.7484                47.5144

                     19                     20                     21
                      A                      A                      A
 Frequencies --    781.5730               903.8322              1041.3223
 Red. masses --     17.3645                16.7947                13.5799
 Frc consts  --      6.2496                 8.0835                 8.6759
 IR Inten    --     11.3289               186.3310                96.8965

                     22                     23                     24
                      A                      A                      A
 Frequencies --   1140.8996              1196.6767              1255.9074
 Red. masses --      1.1860                13.9774                13.9630
 Frc consts  --      0.9095                11.7932                12.9761
 IR Inten    --     87.4624               127.9686                40.7059

                     25                     26                     27
                      A                      A                      A
 Frequencies --   1275.1959              1287.3705              1310.2462
 Red. masses --     14.8139                13.4284                13.3511
 Frc consts  --     14.1930                13.1123                13.5043
 IR Inten    --    190.0272               197.4465               366.7857

                     28                     29                     30
                      A                      A                      A
 Frequencies --   1389.9669              1501.6971              3809.4953
 Red. masses --     12.6914                15.3523                 1.0657
 Frc consts  --     14.4467                20.3980                 9.1118
 IR Inten    --     82.2972               279.6477               190.2589

 - Thermochemistry -
 -------------------
 Temperature   298.150 Kelvin.  Pressure   1.00000 Atm.
 Atom     1 has atomic number  6 and mass  12.00000

 Molecular mass:   199.95666 amu.
 Principal axes and moments of inertia in atomic units:
                           1         2         3
     Eigenvalues --  1131.723632109.183382245.84830
           X            0.68371   0.00200   0.72975
           Y           -0.38429   0.85110   0.35771
           Z           -0.62038  -0.52501   0.58267
 This molecule is an asymmetric top.
 Rotational symmetry number  1.
 Warning -- assumption of classical behavior for rotation
           may cause significant error
 Rotational temperatures (Kelvin)      0.07653     0.04107     0.03857
 Rotational constants (GHZ):           1.59468     0.85566     0.80359
 Zero-point vibrational energy     139617.5 (Joules/Mol)
                                   33.36939 (Kcal/Mol)
 Warning -- explicit consideration of  16 degrees of freedom as
           vibrations may cause significant error
 Vibrational temperatures:     63.06   102.55   195.31   276.47   319.89
          (Kelvin)            347.11   411.95   452.87   460.44   497.32
                              544.32   642.92   680.07   761.28   781.31
                              877.33   907.09   956.01  1124.51  1300.41
                             1498.23  1641.50  1721.75  1806.97  1834.72
                             1852.24  1885.15  1999.85  2160.61  5481.01

 Zero-point correction=                           0.053178 (Hartree/Particle)
 Thermal correction to Energy=                    0.063452
 Thermal correction to Enthalpy=                  0.064396
 Thermal correction to Gibbs Free Energy=         0.016517
 Sum of electronic and zero-point Energies=          -1199.887379
 Sum of electronic and thermal Energies=             -1199.877105
 Sum of electronic and thermal Enthalpies=           -1199.876161
 Sum of electronic and thermal Free Energies=        -1199.924040

                     E (Thermal)             CV                S
                      KCal/Mol        Cal/Mol-Kelvin    Cal/Mol-Kelvin
 Total                   39.817             36.016            100.770
 Electronic               0.000              0.000              0.000
 Translational            0.889              2.981             41.783
 Rotational               0.889              2.981             30.062
 Vibrational             38.039             30.055             28.924
 Vibration     1          0.595              1.980              5.078
 Vibration     2          0.598              1.968              4.118
 Vibration     3          0.614              1.918              2.863
 Vibration     4          0.634              1.851              2.207
 Vibration     5          0.648              1.807              1.940
 Vibration     6          0.658              1.777              1.794
 Vibration     7          0.684              1.699              1.496
 Vibration     8          0.702              1.645              1.337
 Vibration     9          0.706              1.635              1.310
 Vibration    10          0.724              1.584              1.186
 Vibration    11          0.749              1.516              1.046
 Vibration    12          0.806              1.368              0.805
 Vibration    13          0.830              1.311              0.730
 Vibration    14          0.884              1.186              0.589
 Vibration    15          0.898              1.155              0.559
 Vibration    16          0.969              1.011              0.433

 Optimization completed.
    -- Stationary point found.
 Normal termination of Gaussian 16 at Sat May 24 07:15:58 2025.
