 Gaussian 16, Revision C.01,
 Gaussian 16:  ES64L-G16RevC.01  3-Jul-2019

 ----------------------------------------------------------------------
 #P M062X/Def2TZVPP Symm(None) scf(xqc) pop(None) opt(NoFreeze,TS,CalcA
 ll,NoEigentest,MaxCycle=999)
 ----------------------------------------------------------------------

 ------------------------------
 Gaussian input prepared by ASE
 ------------------------------
 Symbolic Z-matrix:
 Charge =  0 Multiplicity = 1

 SCF Done:  E(RM062X) =  -1199.54195087     A.U. after   23 cycles
 SCF Done:  E(RM062X) =  -1199.61536798     A.U. after   21 cycles
 SCF Done:  E(RM062X) =  -1199.67066720     A.U. after   17 cycles
 SCF Done:  E(RM062X) =  -1199.71349267     A.U. after   14 cycles
 SCF Done:  E(RM062X) =  -1199.73274148     A.U. after   14 cycles
 SCF Done:  E(RM062X) =  -1199.73867762     A.U. after   16 cycles
 SCF Done:  E(RM062X) =  -1199.73835096     A.U. after   15 cycles
 SCF Done:  E(RM062X) =  -1199.74228697     A.U. after   16 cycles
 SCF Done:  E(RM062X) =  -1199.75085167     A.U. after   16 cycles
 SCF Done:  E(RM062X) =  -1199.75948680     A.U. after   15 cycles
 SCF Done:  E(RM062X) =  -1199.76351688     A.U. after   14 cycles
 SCF Done:  E(RM062X) =  -1199.76405621     A.U. after   13 cycles
 SCF Done:  E(RM062X) =  -1199.76409916     A.U. after   12 cycles
 SCF Done:  E(RM062X) =  -1199.76409992     A.U. after    9 cycles

 Isotropic polarizability for W=    0.000000       59.16 Bohr**3.
 End of Minotr F.D. properties file   721 does not exist.

 Optimization completed.
    -- Stationary point found.

                          Input orientation:
 ---------------------------------------------------------------------
 Center     Atomic      Atomic             Coordinates (Angstroms)
 Number     Number       Type             X           Y           Z
 ---------------------------------------------------------------------
      1          6           0       -0.637462   -1.214974    0.078421
      2          6           0       -0.036186    0.153213    0.513840
      3          9           0       -0.688413    1.077858   -0.188282
      4          9           0       -0.227007    0.392705    1.791805
      5         16           0        1.683684   -0.191055   -0.081120
      6          8           0        2.896163    0.007572    0.640717
      7          8           0        1.312705   -1.199335   -1.067686
      8          8           0        1.706795    1.119226   -1.038448
      9          9           0       -1.052531   -2.095785    0.860767
     10          9           0        1.203022   -1.522467    1.217796
     11          9           0       -1.177449   -1.302362   -1.055619
     12          1           0        2.464616    1.655004   -0.777984
 ---------------------------------------------------------------------

 ******    1 imaginary frequencies (negative Signs) ******

                      1                      2                      3
                      A                      A                      A
 Frequencies --   -333.8125               108.7735               127.4909
 Red. masses --     15.6709                12.2312                14.9614
 Frc consts  --      1.0288                 0.0853                 0.1433
 IR Inten    --     19.5971                 5.1272               203.2152

                      4                      5                      6
                      A                      A                      A
 Frequencies --    175.8826               187.9261               253.2605
 Red. masses --     14.5631                11.9191                17.6201
 Frc consts  --      0.2654                 0.2480                 0.6659
 IR Inten    --      2.0132                 6.9106                 5.6475

                      7                      8                      9
                      A                      A                      A
 Frequencies --    283.5093               295.2695               301.0215
 Red. masses --     15.3036                11.4661                11.7904
 Frc consts  --      0.7247                 0.5890                 0.6295
 IR Inten    --     15.5864                 5.9947                32.3984

                     10                     11                     12
                      A                      A                      A
 Frequencies --    332.1383               368.5772               412.5667
 Red. masses --      1.8263                 3.4322                16.6193
 Frc consts  --      0.1187                 0.2747                 1.6667
 IR Inten    --     75.0229                21.2988                52.9959

                     13                     14                     15
                      A                      A                      A
 Frequencies --    442.4303               505.5854               535.3574
 Red. masses --     13.2251                 7.1199                 9.5590
 Frc consts  --      1.5252                 1.0723                 1.6142
 IR Inten    --     50.7784                 5.0614                 9.8750

                     16                     17                     18
                      A                      A                      A
 Frequencies --    560.9380               583.3283               641.0566
 Red. masses --     13.8316                17.5381                14.4397
 Frc consts  --      2.5642                 3.5161                 3.4962
 IR Inten    --     95.8260                56.5224                55.6932

                     19                     20                     21
                      A                      A                      A
 Frequencies --    675.5247               772.8059               796.0964
 Red. masses --     14.5468                16.3666                15.9944
 Frc consts  --      3.9111                 5.7590                 5.9724
 IR Inten    --     38.8401                34.4332               245.1512

                     22                     23                     24
                      A                      A                      A
 Frequencies --    961.4795              1125.1347              1162.2312
 Red. masses --     13.0509                10.7732                 1.3110
 Frc consts  --      7.1084                 8.0353                 1.0434
 IR Inten    --     14.9865               178.6249               168.6333

                     25                     26                     27
                      A                      A                      A
 Frequencies --   1211.1057              1310.7363              1403.4707
 Red. masses --     12.9891                12.7850                10.2039
 Frc consts  --     11.2252                12.9414                11.8419
 IR Inten    --     89.8524               153.8681               373.9187

                     28                     29                     30
                      A                      A                      A
 Frequencies --   1453.8710              1532.3075              3860.0533
 Red. masses --     13.2987                13.4258                 1.0658
 Frc consts  --     16.5619                18.5730                 9.3564
 IR Inten    --    225.7733               375.5834               160.6681

 - Thermochemistry -
 -------------------
 Temperature   298.150 Kelvin.  Pressure   1.00000 Atm.
 Atom     1 has atomic number  6 and mass  12.00000

 Molecular mass:   199.95666 amu.
 Principal axes and moments of inertia in atomic units:
                           1         2         3
     Eigenvalues --  1230.121421904.429602006.50325
           X            0.89882  -0.42288  -0.11532
           Y            0.42511   0.77689   0.46447
           Z           -0.10682  -0.46650   0.87805
 This molecule is an asymmetric top.
 Rotational symmetry number  1.
 Warning -- assumption of classical behavior for rotation
           may cause significant error
 Rotational temperatures (Kelvin)      0.07041     0.04548     0.04317
 Rotational constants (GHZ):           1.46712     0.94765     0.89945
    1 imaginary frequencies ignored.
 Zero-point vibrational energy     133861.7 (Joules/Mol)
                                   31.99371 (Kcal/Mol)
 Warning -- explicit consideration of  16 degrees of freedom as
           vibrations may cause significant error
 Vibrational temperatures:    156.50   183.43   253.06   270.38   364.39
          (Kelvin)            407.91   424.83   433.10   477.87   530.30
                              593.59   636.56   727.42   770.26   807.06
                              839.28   922.34   971.93  1111.90  1145.41
                             1383.35  1618.82  1672.19  1742.51  1885.86
                             2019.28  2091.80  2204.65  5553.76

 Zero-point correction=                           0.050985 (Hartree/Particle)
 Thermal correction to Energy=                    0.060785
 Thermal correction to Enthalpy=                  0.061729
 Thermal correction to Gibbs Free Energy=         0.015898
 Sum of electronic and zero-point Energies=          -1199.713115
 Sum of electronic and thermal Energies=             -1199.703315
 Sum of electronic and thermal Enthalpies=           -1199.702371
 Sum of electronic and thermal Free Energies=        -1199.748202

                     E (Thermal)             CV                S
                      KCal/Mol        Cal/Mol-Kelvin    Cal/Mol-Kelvin
 Total                   38.143             35.623             96.460
 Electronic               0.000              0.000              0.000
 Translational            0.889              2.981             41.783
 Rotational               0.889              2.981             29.931
 Vibrational             36.366             29.662             24.745
 Vibration     1          0.606              1.942              3.291
 Vibration     2          0.611              1.926              2.984
 Vibration     3          0.628              1.872              2.372
 Vibration     4          0.633              1.856              2.248
 Vibration     5          0.664              1.757              1.708
 Vibration     6          0.682              1.704              1.512
 Vibration     7          0.689              1.683              1.444
 Vibration     8          0.693              1.672              1.411
 Vibration     9          0.714              1.611              1.250
 Vibration    10          0.741              1.537              1.086
 Vibration    11          0.776              1.443              0.918
 Vibration    12          0.802              1.378              0.819
 Vibration    13          0.861              1.238              0.644
 Vibration    14          0.890              1.172              0.575
 Vibration    15          0.917              1.116              0.522
 Vibration    16          0.940              1.067              0.479

 Normal termination of Gaussian 16 at Sat May 24 04:17:42 2025.
