 Gaussian 16, Revision C.01,
 Gaussian 16:  ES64L-G16RevC.01  3-Jul-2019

 ----------------------------------------------------------------------
 #P M062X/Def2TZVPP Symm(None) scf(xqc) pop(None) geom(AllCheck,NoKeepC
 onstants) guess(Read) irc(RCFC,forward,MaxPoints=100,StepSize=2)
 ----------------------------------------------------------------------

 Structure from the checkpoint file:  "2003846667223680600001_r12_insertion_R_1_2_5_IRC_F.chk"
 ------------------------------
 Gaussian input prepared by ASE
 ------------------------------
 Charge =  0 Multiplicity = 1

 SCF Done:  E(RM062X) =  -1199.77779248     A.U. after   10 cycles
 SCF Done:  E(RM062X) =  -1199.77807173     A.U. after   12 cycles
 SCF Done:  E(RM062X) =  -1199.77853532     A.U. after   11 cycles
 SCF Done:  E(RM062X) =  -1199.77918055     A.U. after   11 cycles
 SCF Done:  E(RM062X) =  -1199.78000370     A.U. after   11 cycles
 SCF Done:  E(RM062X) =  -1199.78100007     A.U. after   11 cycles
 SCF Done:  E(RM062X) =  -1199.78216407     A.U. after   11 cycles
 SCF Done:  E(RM062X) =  -1199.78348931     A.U. after   11 cycles
 SCF Done:  E(RM062X) =  -1199.78496874     A.U. after   11 cycles
 SCF Done:  E(RM062X) =  -1199.78659477     A.U. after   11 cycles
 SCF Done:  E(RM062X) =  -1199.92347554     A.U. after    9 cycles
 SCF Done:  E(RM062X) =  -1199.92404486     A.U. after    9 cycles
 SCF Done:  E(RM062X) =  -1199.92460202     A.U. after    9 cycles
 SCF Done:  E(RM062X) =  -1199.92514704     A.U. after    9 cycles
 SCF Done:  E(RM062X) =  -1199.92567990     A.U. after    9 cycles
 SCF Done:  E(RM062X) =  -1199.92620062     A.U. after    9 cycles
 SCF Done:  E(RM062X) =  -1199.92670916     A.U. after    9 cycles
 SCF Done:  E(RM062X) =  -1199.92720549     A.U. after    9 cycles
 SCF Done:  E(RM062X) =  -1199.92768959     A.U. after    9 cycles
 SCF Done:  E(RM062X) =  -1199.92816140     A.U. after    9 cycles

                          Input orientation:
 ---------------------------------------------------------------------
 Center     Atomic      Atomic             Coordinates (Angstroms)
 Number     Number       Type             X           Y           Z
 ---------------------------------------------------------------------
      1          6           0       -0.348532   -0.719401    0.070321
      2          6           0       -1.362746    0.403424   -0.029098
      3          9           0       -1.185842    1.031447   -1.188621
      4          9           0       -1.165011    1.251293    0.966329
      5         16           0        1.470248    0.034113    0.006307
      6          8           0        1.935253   -0.075321    1.336264
      7          8           0        2.069528   -0.568752   -1.132572
      8          8           0        1.433397    1.589310   -0.281291
      9          9           0       -0.564047   -1.575556   -0.924221
     10          9           0       -0.547198   -1.368142    1.213045
     11          9           0       -2.589339   -0.085085    0.027686
     12          1           0        1.501095    1.742026   -1.235461
 ---------------------------------------------------------------------

 Normal termination of Gaussian 16 at Sat May 24 05:44:31 2025.
