 Gaussian 16, Revision C.01,
 Gaussian 16:  ES64L-G16RevC.01  3-Jul-2019

 ----------------------------------------------------------------------
 #P M062X/Def2TZVPP Symm(None) scf(xqc) pop(None) opt(NoFreeze,TS,CalcA
 ll,NoEigentest,MaxCycle=999)
 ----------------------------------------------------------------------

 ------------------------------
 Gaussian input prepared by ASE
 ------------------------------
 Symbolic Z-matrix:
 Charge =  0 Multiplicity = 1

 SCF Done:  E(RM062X) =  -1199.71638415     A.U. after   18 cycles
 SCF Done:  E(RM062X) =  -1199.71576737     A.U. after   16 cycles
 SCF Done:  E(RM062X) =  -1199.73030037     A.U. after   16 cycles
 SCF Done:  E(RM062X) =  -1199.74970683     A.U. after   15 cycles
 SCF Done:  E(RM062X) =  -1199.76336426     A.U. after   13 cycles
 SCF Done:  E(RM062X) =  -1199.77112092     A.U. after   15 cycles
 SCF Done:  E(RM062X) =  -1199.77878305     A.U. after   15 cycles
 SCF Done:  E(RM062X) =  -1199.78644453     A.U. after   16 cycles
 SCF Done:  E(RM062X) =  -1199.78948477     A.U. after   14 cycles
 SCF Done:  E(RM062X) =  -1199.79017713     A.U. after   13 cycles
 SCF Done:  E(RM062X) =  -1199.79276539     A.U. after   13 cycles
 SCF Done:  E(RM062X) =  -1199.79853564     A.U. after   12 cycles
 SCF Done:  E(RM062X) =  -1199.80493177     A.U. after   13 cycles
 SCF Done:  E(RM062X) =  -1199.80706745     A.U. after   12 cycles
 SCF Done:  E(RM062X) =  -1199.81007769     A.U. after   13 cycles
 SCF Done:  E(RM062X) =  -1199.80251347     A.U. after   12 cycles
 SCF Done:  E(RM062X) =  -1199.80983649     A.U. after   13 cycles
 SCF Done:  E(RM062X) =  -1199.81137885     A.U. after   13 cycles
 SCF Done:  E(RM062X) =  -1199.81151649     A.U. after   11 cycles
 SCF Done:  E(RM062X) =  -1199.81151875     A.U. after    7 cycles

 Isotropic polarizability for W=    0.000000       56.68 Bohr**3.
 End of Minotr F.D. properties file   721 does not exist.

 Optimization completed.
    -- Stationary point found.

                          Input orientation:
 ---------------------------------------------------------------------
 Center     Atomic      Atomic             Coordinates (Angstroms)
 Number     Number       Type             X           Y           Z
 ---------------------------------------------------------------------
      1          6           0       -0.583964   -0.995610   -0.160651
      2          6           0        0.320365   -0.255455    0.719388
      3          9           0       -0.095967    0.991397   -1.527540
      4          9           0       -0.256043    0.596643    1.479274
      5         16           0        2.188061   -0.129616    0.467940
      6          8           0        2.644131    0.085745    1.795548
      7          8           0        2.463769   -1.368886   -0.177055
      8          8           0        2.139957    1.041081   -0.389815
      9          9           0       -0.190285   -1.722939   -1.109520
     10          9           0       -0.164748   -1.718577    1.222307
     11          9           0       -1.837082   -0.797811   -0.128762
     12          1           0        0.819745    1.153623   -1.296921
 ---------------------------------------------------------------------

 ******    1 imaginary frequencies (negative Signs) ******

                      1                      2                      3
                      A                      A                      A
 Frequencies --   -418.4500                46.6819                85.3099
 Red. masses --     13.2629                16.2490                15.5881
 Frc consts  --      1.3683                 0.0209                 0.0668
 IR Inten    --    112.2200                 0.2938                 2.5223

                      4                      5                      6
                      A                      A                      A
 Frequencies --    112.3261               150.2945               179.8679
 Red. masses --     15.6648                16.7483                12.8276
 Frc consts  --      0.1164                 0.2229                 0.2445
 IR Inten    --      1.5616                 3.3278                 2.8888

                      7                      8                      9
                      A                      A                      A
 Frequencies --    199.4727               227.1291               246.5996
 Red. masses --     15.9833                17.5582                17.6755
 Frc consts  --      0.3747                 0.5337                 0.6333
 IR Inten    --     10.4420                 1.2073                 0.6951

                     10                     11                     12
                      A                      A                      A
 Frequencies --    280.8578               324.2077               385.5602
 Red. masses --     12.5454                17.5210                15.8891
 Frc consts  --      0.5831                 1.0851                 1.3917
 IR Inten    --     28.1531                 4.8969                 7.3952

                     13                     14                     15
                      A                      A                      A
 Frequencies --    445.3658               515.5434               534.9524
 Red. masses --     17.7575                15.0976                16.2490
 Frc consts  --      2.0752                 2.3642                 2.7397
 IR Inten    --      5.4280                27.9539                18.7533

                     16                     17                     18
                      A                      A                      A
 Frequencies --    559.9261               592.6440               631.6395
 Red. masses --     17.2279                14.4694                18.4793
 Frc consts  --      3.1823                 2.9942                 4.3439
 IR Inten    --     23.5888                27.4451               194.1014

                     19                     20                     21
                      A                      A                      A
 Frequencies --    725.1780               790.3536               818.9237
 Red. masses --     15.3086                 1.0750                11.3385
 Frc consts  --      4.7432                 0.3957                 4.4802
 IR Inten    --      9.6087               108.7936               220.5084

                     22                     23                     24
                      A                      A                      A
 Frequencies --    915.3504              1041.6212              1101.4778
 Red. masses --      1.1144                11.1518                15.2747
 Frc consts  --      0.5501                 7.1288                10.9188
 IR Inten    --    412.1286                87.8233                43.0581

                     25                     26                     27
                      A                      A                      A
 Frequencies --   1344.8119              1384.1576              1439.3632
 Red. masses --     15.9666                13.6626                19.8394
 Frc consts  --     17.0132                15.4225                24.2170
 IR Inten    --    270.7638               110.7931               272.7020

                     28                     29                     30
                      A                      A                      A
 Frequencies --   1527.4936              1605.4018              3304.2672
 Red. masses --     13.3244                12.5989                 1.0655
 Frc consts  --     18.3172                19.1316                 6.8540
 IR Inten    --    351.1175               130.6334               922.4105

 - Thermochemistry -
 -------------------
 Temperature   298.150 Kelvin.  Pressure   1.00000 Atm.
 Atom     1 has atomic number  6 and mass  12.00000

 Molecular mass:   199.95666 amu.
 Principal axes and moments of inertia in atomic units:
                           1         2         3
     Eigenvalues --  1259.332022160.083242313.20366
           X            0.94132  -0.06154  -0.33185
           Y            0.23484  -0.58676   0.77496
           Z            0.24241   0.80742   0.53788
 This molecule is an asymmetric top.
 Rotational symmetry number  1.
 Warning -- assumption of classical behavior for rotation
           may cause significant error
 Rotational temperatures (Kelvin)      0.06878     0.04010     0.03744
 Rotational constants (GHZ):           1.43309     0.83550     0.78019
    1 imaginary frequencies ignored.
 Zero-point vibrational energy     128698.9 (Joules/Mol)
                                   30.75978 (Kcal/Mol)
 Warning -- explicit consideration of  16 degrees of freedom as
           vibrations may cause significant error
 Vibrational temperatures:     67.16   122.74   161.61   216.24   258.79
          (Kelvin)            287.00   326.79   354.80   404.09   466.46
                              554.74   640.78   741.75   769.68   805.61
                              852.68   908.79  1043.37  1137.14  1178.25
                             1316.99  1498.66  1584.78  1934.88  1991.49
                             2070.92  2197.72  2309.82  4754.10

 Zero-point correction=                           0.049019 (Hartree/Particle)
 Thermal correction to Energy=                    0.059701
 Thermal correction to Enthalpy=                  0.060645
 Thermal correction to Gibbs Free Energy=         0.011706
 Sum of electronic and zero-point Energies=          -1199.762500
 Sum of electronic and thermal Energies=             -1199.751818
 Sum of electronic and thermal Enthalpies=           -1199.750873
 Sum of electronic and thermal Free Energies=        -1199.799813

                     E (Thermal)             CV                S
                      KCal/Mol        Cal/Mol-Kelvin    Cal/Mol-Kelvin
 Total                   37.463             36.356            103.002
 Electronic               0.000              0.000              0.000
 Translational            0.889              2.981             41.783
 Rotational               0.889              2.981             30.221
 Vibrational             35.686             30.395             30.998
 Vibration     1          0.595              1.979              4.953
 Vibration     2          0.601              1.959              3.765
 Vibration     3          0.607              1.939              3.228
 Vibration     4          0.618              1.902              2.668
 Vibration     5          0.629              1.867              2.330
 Vibration     6          0.638              1.841              2.138
 Vibration     7          0.651              1.800              1.902
 Vibration     8          0.661              1.768              1.755
 Vibration     9          0.681              1.709              1.528
 Vibration    10          0.709              1.627              1.289
 Vibration    11          0.754              1.501              1.017
 Vibration    12          0.805              1.371              0.810
 Vibration    13          0.871              1.216              0.620
 Vibration    14          0.890              1.173              0.576
 Vibration    15          0.916              1.118              0.524
 Vibration    16          0.950              1.047              0.462

 Normal termination of Gaussian 16 at Sat May 24 04:04:25 2025.
