 Gaussian 16, Revision C.01,
 Gaussian 16:  ES64L-G16RevC.01  3-Jul-2019

 ----------------------------------------------------------------------
 #P M062X/Def2TZVPP Symm(None) scf(xqc) pop(None) geom(AllCheck,NoKeepC
 onstants) guess(Read) irc(RCFC,forward,MaxPoints=100,StepSize=2)
 ----------------------------------------------------------------------

 Structure from the checkpoint file:  "2003846667223680600001_r12_insertion_R_9_1_10_IRC_F.chk"
 ------------------------------
 Gaussian input prepared by ASE
 ------------------------------
 Charge =  0 Multiplicity = 1

 SCF Done:  E(RM062X) =  -1199.76411317     A.U. after   10 cycles
 SCF Done:  E(RM062X) =  -1199.76415306     A.U. after   11 cycles
 SCF Done:  E(RM062X) =  -1199.76421978     A.U. after   11 cycles
 SCF Done:  E(RM062X) =  -1199.76431346     A.U. after   11 cycles
 SCF Done:  E(RM062X) =  -1199.76443416     A.U. after   11 cycles
 SCF Done:  E(RM062X) =  -1199.76458186     A.U. after   11 cycles
 SCF Done:  E(RM062X) =  -1199.76475648     A.U. after   11 cycles
 SCF Done:  E(RM062X) =  -1199.76495786     A.U. after   11 cycles
 SCF Done:  E(RM062X) =  -1199.76518580     A.U. after   11 cycles
 SCF Done:  E(RM062X) =  -1199.76544003     A.U. after   11 cycles
 SCF Done:  E(RM062X) =  -1199.83014189     A.U. after    9 cycles
 SCF Done:  E(RM062X) =  -1199.83059916     A.U. after    9 cycles
 SCF Done:  E(RM062X) =  -1199.83104052     A.U. after    9 cycles
 SCF Done:  E(RM062X) =  -1199.83146635     A.U. after    9 cycles
 SCF Done:  E(RM062X) =  -1199.83187683     A.U. after    9 cycles
 SCF Done:  E(RM062X) =  -1199.83226933     A.U. after    9 cycles
 SCF Done:  E(RM062X) =  -1199.83264870     A.U. after    9 cycles
 SCF Done:  E(RM062X) =  -1199.83300991     A.U. after    9 cycles
 SCF Done:  E(RM062X) =  -1199.83337556     A.U. after    9 cycles
 SCF Done:  E(RM062X) =  -1199.83371890     A.U. after    9 cycles

                          Input orientation:
 ---------------------------------------------------------------------
 Center     Atomic      Atomic             Coordinates (Angstroms)
 Number     Number       Type             X           Y           Z
 ---------------------------------------------------------------------
      1          6           0       -0.932926   -0.770592   -0.350890
      2          6           0       -0.659089    0.604585    0.366856
      3          9           0       -1.194613    1.589534   -0.317388
      4          9           0       -0.906525    0.754216    1.643394
      5         16           0        1.119801    0.217476   -0.039732
      6          8           0        2.493225    0.390087    0.344138
      7          8           0        0.335026   -0.907367   -0.964997
      8          8           0        1.133293    1.308221   -1.255669
      9          9           0       -1.280618   -1.730271    0.485573
     10          9           0        0.904391   -0.904807    1.197223
     11          9           0       -1.844297   -0.724542   -1.303164
     12          1           0        2.025401    1.671183   -1.305238
 ---------------------------------------------------------------------

 Normal termination of Gaussian 16 at Sat May 24 06:55:51 2025.
