 Gaussian 16, Revision C.01,
 Gaussian 16:  ES64L-G16RevC.01  3-Jul-2019

 -----------------------------------------------------------------
 #P M062X/Def2TZVPP Symm(None) scf(xqc) pop(None) freq opt(CalcFC)
 -----------------------------------------------------------------

 ------------------------------
 Gaussian input prepared by ASE
 ------------------------------
 Symbolic Z-matrix:
 Charge =  0 Multiplicity = 1

 SCF Done:  E(RM062X) =  -1199.91941500     A.U. after   13 cycles
 SCF Done:  E(RM062X) =  -1199.93534484     A.U. after   13 cycles
 SCF Done:  E(RM062X) =  -1199.93628230     A.U. after   12 cycles
 SCF Done:  E(RM062X) =  -1199.93860967     A.U. after   11 cycles
 SCF Done:  E(RM062X) =  -1199.93985013     A.U. after   12 cycles
 SCF Done:  E(RM062X) =  -1199.94005546     A.U. after   11 cycles
 SCF Done:  E(RM062X) =  -1199.94034428     A.U. after   10 cycles
 SCF Done:  E(RM062X) =  -1199.94050529     A.U. after   10 cycles
 SCF Done:  E(RM062X) =  -1199.94058549     A.U. after   11 cycles
 SCF Done:  E(RM062X) =  -1199.94060840     A.U. after    9 cycles
 SCF Done:  E(RM062X) =  -1199.94063087     A.U. after    9 cycles
 SCF Done:  E(RM062X) =  -1199.94064096     A.U. after    9 cycles
 SCF Done:  E(RM062X) =  -1199.94064729     A.U. after    9 cycles
 SCF Done:  E(RM062X) =  -1199.94066002     A.U. after    9 cycles
 SCF Done:  E(RM062X) =  -1199.94066746     A.U. after   10 cycles
 SCF Done:  E(RM062X) =  -1199.94066796     A.U. after    7 cycles
 Optimization completed.
    -- Stationary point found.
 Normal termination of Gaussian 16 at Sat May 24 07:30:36 2025.

 ---------------------------------------------------------------------
 #P Geom=AllCheck Guess=TCheck SCRF=Check GenChk RM062X/def2TZVPP Freq
 ---------------------------------------------------------------------

 Structure from the checkpoint file:  "2003846667223680600001_r13_insertion_RSR_9_1_2_5_IRC_F_prod.chk"
 ------------------------------
 Gaussian input prepared by ASE
 ------------------------------
 Charge =  0 Multiplicity = 1

                          Input orientation:
 ---------------------------------------------------------------------
 Center     Atomic      Atomic             Coordinates (Angstroms)
 Number     Number       Type             X           Y           Z
 ---------------------------------------------------------------------
      1          6           0       -0.067911   -1.436376   -0.307207
      2          6           0        0.538726   -0.014423   -0.320782
      3          9           0        1.722812   -0.051830    0.302898
      4          9           0        0.717691    0.367419   -1.582151
      5         16           0       -0.503418    1.245275    0.530327
      6          8           0       -1.578990    1.565768   -0.324775
      7          8           0       -0.663852    0.811105    1.871854
      8          8           0        0.504987    2.450204    0.488331
      9          9           0       -1.294445   -1.413096   -0.802745
     10          9           0        0.687819   -2.226405   -1.056617
     11          9           0       -0.099884   -1.914610    0.923810
     12          1           0        1.077566    2.436607    1.269031
 ---------------------------------------------------------------------

 SCF Done:  E(RM062X) =  -1199.94066796     A.U. after    1 cycles

 Isotropic polarizability for W=    0.000000       53.45 Bohr**3.
 End of Minotr F.D. properties file   721 does not exist.

                      1                      2                      3
                      A                      A                      A
 Frequencies --     25.0898                69.4477               127.9477
 Red. masses --     14.9047                13.6118                14.6000
 Frc consts  --      0.0055                 0.0387                 0.1408
 IR Inten    --      1.1775                 1.0444                 1.3642

                      4                      5                      6
                      A                      A                      A
 Frequencies --    193.0388               219.9921               237.2573
 Red. masses --      9.2528                16.9015                 7.8102
 Frc consts  --      0.2031                 0.4819                 0.2590
 IR Inten    --      7.9874                 1.5765                11.8948

                      7                      8                      9
                      A                      A                      A
 Frequencies --    283.5837               318.3746               323.2473
 Red. masses --     13.7333                 5.5760                17.7608
 Frc consts  --      0.6507                 0.3330                 1.0934
 IR Inten    --      0.3791                14.1404                 0.0528

                     10                     11                     12
                      A                      A                      A
 Frequencies --    366.1390               376.1627               446.4768
 Red. masses --      1.8260                14.3991                 4.7145
 Frc consts  --      0.1442                 1.2004                 0.5537
 IR Inten    --     54.5123                 1.7510                22.6810

                     13                     14                     15
                      A                      A                      A
 Frequencies --    499.9792               507.6003               543.7833
 Red. masses --      7.3298                14.6038                17.7378
 Frc consts  --      1.0796                 2.2170                 3.0903
 IR Inten    --      7.5839                32.9746                25.5930

                     16                     17                     18
                      A                      A                      A
 Frequencies --    608.8841               630.2984               663.9646
 Red. masses --     17.1554                19.4456                17.6102
 Frc consts  --      3.7473                 4.5516                 4.5741
 IR Inten    --      3.6702               111.1877                45.8241

                     19                     20                     21
                      A                      A                      A
 Frequencies --    781.4688               897.5078              1041.3509
 Red. masses --     17.3627                16.5755                14.0127
 Frc consts  --      6.2473                 7.8667                 8.9530
 IR Inten    --     19.6319               229.1816                28.3061

                     22                     23                     24
                      A                      A                      A
 Frequencies --   1140.2473              1201.1963              1256.2010
 Red. masses --      1.1814                13.6389                15.8681
 Frc consts  --      0.9050                11.5946                14.7534
 IR Inten    --     93.1214               247.3217                14.6093

                     25                     26                     27
                      A                      A                      A
 Frequencies --   1264.1667              1301.1186              1304.9298
 Red. masses --     13.3224                13.8920                13.2016
 Frc consts  --     12.5442                13.8564                13.2449
 IR Inten    --     92.4787               319.8485               236.3336

                     28                     29                     30
                      A                      A                      A
 Frequencies --   1388.2799              1503.8688              3806.0386
 Red. masses --     12.6944                15.4933                 1.0657
 Frc consts  --     14.4151                20.6450                 9.0952
 IR Inten    --     90.3840               296.5406               188.2331

 - Thermochemistry -
 -------------------
 Temperature   298.150 Kelvin.  Pressure   1.00000 Atm.
 Atom     1 has atomic number  6 and mass  12.00000

 Molecular mass:   199.95666 amu.
 Principal axes and moments of inertia in atomic units:
                           1         2         3
     Eigenvalues --  1118.789732148.311942266.78344
           X           -0.12882   0.87707   0.46276
           Y            0.94706   0.24719  -0.20487
           Z            0.29407  -0.41187   0.86249
 This molecule is an asymmetric top.
 Rotational symmetry number  1.
 Warning -- assumption of classical behavior for rotation
           may cause significant error
 Rotational temperatures (Kelvin)      0.07742     0.04032     0.03821
 Rotational constants (GHZ):           1.61312     0.84007     0.79617
 Zero-point vibrational energy     139530.3 (Joules/Mol)
                                   33.34854 (Kcal/Mol)
 Warning -- explicit consideration of  16 degrees of freedom as
           vibrations may cause significant error
 Vibrational temperatures:     36.10    99.92   184.09   277.74   316.52
          (Kelvin)            341.36   408.01   458.07   465.08   526.79
                              541.21   642.38   719.36   730.32   782.38
                              876.05   906.86   955.30  1124.36  1291.31
                             1498.27  1640.56  1728.25  1807.39  1818.85
                             1872.02  1877.50  1997.43  2163.73  5476.04

 Zero-point correction=                           0.053144 (Hartree/Particle)
 Thermal correction to Energy=                    0.063456
 Thermal correction to Enthalpy=                  0.064400
 Thermal correction to Gibbs Free Energy=         0.015945
 Sum of electronic and zero-point Energies=          -1199.887524
 Sum of electronic and thermal Energies=             -1199.877212
 Sum of electronic and thermal Enthalpies=           -1199.876268
 Sum of electronic and thermal Free Energies=        -1199.924722

                     E (Thermal)             CV                S
                      KCal/Mol        Cal/Mol-Kelvin    Cal/Mol-Kelvin
 Total                   39.819             35.990            101.981
 Electronic               0.000              0.000              0.000
 Translational            0.889              2.981             41.783
 Rotational               0.889              2.981             30.078
 Vibrational             38.042             30.028             30.119
 Vibration     1          0.593              1.985              6.184
 Vibration     2          0.598              1.969              4.169
 Vibration     3          0.611              1.925              2.977
 Vibration     4          0.635              1.850              2.198
 Vibration     5          0.647              1.811              1.959
 Vibration     6          0.656              1.784              1.823
 Vibration     7          0.682              1.704              1.512
 Vibration     8          0.705              1.638              1.318
 Vibration     9          0.708              1.629              1.294
 Vibration    10          0.739              1.542              1.096
 Vibration    11          0.747              1.521              1.055
 Vibration    12          0.806              1.369              0.807
 Vibration    13          0.855              1.250              0.658
 Vibration    14          0.863              1.233              0.639
 Vibration    15          0.899              1.153              0.557
 Vibration    16          0.968              1.013              0.435

                           ! Non-Optimized Parameters !
 Normal termination of Gaussian 16 at Sat May 24 07:35:23 2025.
