 Gaussian 16, Revision C.01,
 Gaussian 16:  ES64L-G16RevC.01  3-Jul-2019

 ----------------------------------------------------------------------
 #P mp2/6-31G Symm(None) scf(xqc) pop(None) guess(Read,Mix) geom(AllChe
 ck,NoKeepConstants) irc(RCFC,reverse,MaxPoints=100,StepSize=2)
 ----------------------------------------------------------------------

 Structure from the checkpoint file:  "2003846667223680600001_R_Addition_MultipleBond_5_2_3_IRC_R.chk"
 ------------------------------
 Gaussian input prepared by ASE
 ------------------------------
 Charge =  0 Multiplicity = 1

 SCF Done:  E(RHF) =  -1194.96252997     A.U. after   18 cycles
 E2 =    -0.1291535000D+01 EUMP2 =    -0.11962540649684D+04
 SCF Done:  E(RHF) =  -1194.96253124     A.U. after    8 cycles
 E2 =    -0.1291533727D+01 EUMP2 =    -0.11962540649629D+04
 SCF Done:  E(RHF) =  -1194.96253122     A.U. after    4 cycles
 E2 =    -0.1291533744D+01 EUMP2 =    -0.11962540649619D+04
 SCF Done:  E(RHF) =  -1194.96253281     A.U. after   10 cycles
 E2 =    -0.1291532291D+01 EUMP2 =    -0.11962540650990D+04
 SCF Done:  E(RHF) =  -1194.96175479     A.U. after   13 cycles
 E2 =    -0.1292180041D+01 EUMP2 =    -0.11962539348343D+04
 SCF Done:  E(RHF) =  -1194.96252689     A.U. after   13 cycles
 E2 =    -0.1291537910D+01 EUMP2 =    -0.11962540647991D+04
 SCF Done:  E(RHF) =  -1194.96252951     A.U. after   10 cycles
 E2 =    -0.1291535375D+01 EUMP2 =    -0.11962540648893D+04
 SCF Done:  E(RHF) =  -1194.96164359     A.U. after   12 cycles
 E2 =    -0.1292259403D+01 EUMP2 =    -0.11962539029920D+04
 SCF Done:  E(RHF) =  -1194.96252687     A.U. after   13 cycles
 E2 =    -0.1291537930D+01 EUMP2 =    -0.11962540648011D+04
 SCF Done:  E(RHF) =  -1194.96252940     A.U. after   10 cycles
 E2 =    -0.1291535486D+01 EUMP2 =    -0.11962540648908D+04
 E2 =    -0.1291535497D+01 EUMP2 =    -0.11962540648715D+04
 SCF Done:  E(RHF) =  -1194.96252979     A.U. after    9 cycles
 E2 =    -0.1291535112D+01 EUMP2 =    -0.11962540649030D+04
 SCF Done:  E(RHF) =  -1194.96252990     A.U. after    8 cycles
 E2 =    -0.1291534990D+01 EUMP2 =    -0.11962540648909D+04
 SCF Done:  E(RHF) =  -1194.96253030     A.U. after    9 cycles
 E2 =    -0.1291534624D+01 EUMP2 =    -0.11962540649234D+04
 SCF Done:  E(RHF) =  -1194.96177550     A.U. after   13 cycles
 E2 =    -0.1292163558D+01 EUMP2 =    -0.11962539390582D+04
 SCF Done:  E(RHF) =  -1194.96252739     A.U. after   13 cycles
 E2 =    -0.1291537405D+01 EUMP2 =    -0.11962540647969D+04
 SCF Done:  E(RHF) =  -1194.96252968     A.U. after   10 cycles
 E2 =    -0.1291535210D+01 EUMP2 =    -0.11962540648893D+04
 SCF Done:  E(RHF) =  -1194.96256390     A.U. after   11 cycles
 E2 =    -0.1291501115D+01 EUMP2 =    -0.11962540650127D+04
 SCF Done:  E(RHF) =  -1194.96255980     A.U. after   11 cycles
 E2 =    -0.1291505037D+01 EUMP2 =    -0.11962540648412D+04
 SCF Done:  E(RHF) =  -1194.96255638     A.U. after    9 cycles
 E2 =    -0.1291508423D+01 EUMP2 =    -0.11962540648024D+04
 SCF Done:  E(RHF) =  -1194.96254466     A.U. after    9 cycles
 E2 =    -0.1291520146D+01 EUMP2 =    -0.11962540648021D+04

                          Input orientation:
 ---------------------------------------------------------------------
 Center     Atomic      Atomic             Coordinates (Angstroms)
 Number     Number       Type             X           Y           Z
 ---------------------------------------------------------------------
      1          6           0       -1.177608   -0.937494   -0.209037
      2          6           0       -0.601557    0.439682    0.144314
      3          9           0       -1.040956    1.395126   -0.753284
      4          9           0       -0.937736    0.789304    1.445994
      5         16           0        1.440954    0.412065    0.175909
      6          8           0        1.890548    1.006122    1.580742
      7          8           0        2.032478   -0.974020   -0.352117
      8          8           0        1.563478    1.654022   -1.145319
      9          9           0       -0.809352   -1.286285   -1.501102
     10          9           0       -0.697894   -1.886536    0.686470
     11          9           0       -2.568201   -0.903240   -0.129794
     12          1           0        2.522832    1.754004   -1.387042
 ---------------------------------------------------------------------

 Normal termination of Gaussian 16 at Sat May 24 04:31:50 2025.
