 Gaussian 16, Revision C.01,
 Gaussian 16:  ES64L-G16RevC.01  3-Jul-2019

 -----------------------------------------------------------------
 #P M062X/Def2TZVPP Symm(None) scf(xqc) pop(None) freq opt(CalcFC)
 -----------------------------------------------------------------

 ------------------------------
 Gaussian input prepared by ASE
 ------------------------------
 Symbolic Z-matrix:
 Charge =  0 Multiplicity = 1

 SCF Done:  E(RM062X) =  -1199.90458258     A.U. after   13 cycles
 SCF Done:  E(RM062X) =  -1199.92776334     A.U. after   12 cycles
 SCF Done:  E(RM062X) =  -1199.93470436     A.U. after   13 cycles
 SCF Done:  E(RM062X) =  -1199.93778818     A.U. after   14 cycles
 SCF Done:  E(RM062X) =  -1199.93879253     A.U. after   11 cycles
 SCF Done:  E(RM062X) =  -1199.93901291     A.U. after   10 cycles
 SCF Done:  E(RM062X) =  -1199.93915990     A.U. after   10 cycles
 SCF Done:  E(RM062X) =  -1199.93940658     A.U. after   12 cycles
 SCF Done:  E(RM062X) =  -1199.93957027     A.U. after   11 cycles
 SCF Done:  E(RM062X) =  -1199.93987357     A.U. after   11 cycles
 SCF Done:  E(RM062X) =  -1199.94043539     A.U. after   10 cycles
 SCF Done:  E(RM062X) =  -1199.94050160     A.U. after   11 cycles
 SCF Done:  E(RM062X) =  -1199.94059187     A.U. after   11 cycles
 SCF Done:  E(RM062X) =  -1199.94064164     A.U. after   11 cycles
 SCF Done:  E(RM062X) =  -1199.94066198     A.U. after   10 cycles
 SCF Done:  E(RM062X) =  -1199.94067273     A.U. after   10 cycles
 SCF Done:  E(RM062X) =  -1199.94067529     A.U. after    9 cycles
 SCF Done:  E(RM062X) =  -1199.94067595     A.U. after    8 cycles
 SCF Done:  E(RM062X) =  -1199.94067601     A.U. after    7 cycles
 Optimization completed.
    -- Stationary point found.
 Normal termination of Gaussian 16 at Sat May 24 05:19:34 2025.

 ---------------------------------------------------------------------
 #P Geom=AllCheck Guess=TCheck SCRF=Check GenChk RM062X/def2TZVPP Freq
 ---------------------------------------------------------------------

 Structure from the checkpoint file:  "2003846667223680600001_r12_insertion_R_3_2_1_IRC_F_prod.chk"
 ------------------------------
 Gaussian input prepared by ASE
 ------------------------------
 Charge =  0 Multiplicity = 1

                          Input orientation:
 ---------------------------------------------------------------------
 Center     Atomic      Atomic             Coordinates (Angstroms)
 Number     Number       Type             X           Y           Z
 ---------------------------------------------------------------------
      1          6           0       -1.197022   -0.937406   -0.010402
      2          6           0       -0.471842    0.424658   -0.104300
      3          9           0       -0.736877    0.966101   -1.299764
      4          9           0       -0.930779    1.225830    0.852932
      5         16           0        1.359912    0.302336    0.061873
      6          8           0        1.658290    0.104980    1.426730
      7          8           0        1.812985   -0.552033   -0.976731
      8          8           0        1.725607    1.790221   -0.288507
      9          9           0       -0.892234   -1.697234   -1.047137
     10          9           0       -0.854623   -1.558328    1.106680
     11          9           0       -2.504830   -0.722229   -0.003972
     12          1           0        1.846112    1.890547   -1.243988
 ---------------------------------------------------------------------

 SCF Done:  E(RM062X) =  -1199.94067601     A.U. after    1 cycles

 Isotropic polarizability for W=    0.000000       53.49 Bohr**3.
 End of Minotr F.D. properties file   721 does not exist.

                      1                      2                      3
                      A                      A                      A
 Frequencies --     24.1131                69.2692               127.9474
 Red. masses --     14.8597                13.6496                14.5232
 Frc consts  --      0.0051                 0.0386                 0.1401
 IR Inten    --      1.1839                 1.0431                 1.4047

                      4                      5                      6
                      A                      A                      A
 Frequencies --    192.3060               221.5304               237.3914
 Red. masses --      9.1808                16.9057                 7.6670
 Frc consts  --      0.2000                 0.4888                 0.2546
 IR Inten    --      7.9491                 1.6241                12.0811

                      7                      8                      9
                      A                      A                      A
 Frequencies --    283.5433               317.8924               323.3463
 Red. masses --     13.4877                 5.2257                17.8339
 Frc consts  --      0.6389                 0.3111                 1.0986
 IR Inten    --      0.3078                15.5356                 0.0411

                     10                     11                     12
                      A                      A                      A
 Frequencies --    364.6154               376.1620               446.1198
 Red. masses --      1.8432                15.7189                 4.7997
 Frc consts  --      0.1444                 1.3105                 0.5628
 IR Inten    --     53.9396                 1.0806                22.4942

                     13                     14                     15
                      A                      A                      A
 Frequencies --    499.6448               507.5688               543.7027
 Red. masses --      7.4140                14.5945                17.7502
 Frc consts  --      1.0905                 2.2153                 3.0916
 IR Inten    --      7.3808                32.8143                25.2472

                     16                     17                     18
                      A                      A                      A
 Frequencies --    608.8363               631.0799               664.1005
 Red. masses --     17.1461                19.4182                17.6499
 Frc consts  --      3.7447                 4.5565                 4.5863
 IR Inten    --      3.7036               110.7527                47.6629

                     19                     20                     21
                      A                      A                      A
 Frequencies --    781.7127               898.9132              1041.0032
 Red. masses --     17.3664                16.5656                14.0179
 Frc consts  --      6.2525                 7.8867                 8.9503
 IR Inten    --     19.2740               228.7615                28.2493

                     22                     23                     24
                      A                      A                      A
 Frequencies --   1138.8228              1200.8949              1256.6085
 Red. masses --      1.1818                13.5923                15.8679
 Frc consts  --      0.9030                11.5493                14.7628
 IR Inten    --     93.2057               246.1362                17.4867

                     25                     26                     27
                      A                      A                      A
 Frequencies --   1263.6627              1301.8948              1304.7946
 Red. masses --     13.3553                13.8820                13.2079
 Frc consts  --     12.5651                13.8628                13.2486
 IR Inten    --     88.6605               321.5212               236.4057

                     28                     29                     30
                      A                      A                      A
 Frequencies --   1389.2119              1505.1090              3806.7778
 Red. masses --     12.6882                15.5479                 1.0657
 Frc consts  --     14.4274                20.7519                 9.0988
 IR Inten    --     91.8008               295.7360               188.0251

 - Thermochemistry -
 -------------------
 Temperature   298.150 Kelvin.  Pressure   1.00000 Atm.
 Atom     1 has atomic number  6 and mass  12.00000

 Molecular mass:   199.95666 amu.
 Principal axes and moments of inertia in atomic units:
                           1         2         3
     Eigenvalues --  1118.939852147.687312266.30749
           X            0.89048  -0.44833  -0.07772
           Y            0.45486   0.88161   0.12596
           Z            0.01205  -0.14752   0.98899
 This molecule is an asymmetric top.
 Rotational symmetry number  1.
 Warning -- assumption of classical behavior for rotation
           may cause significant error
 Rotational temperatures (Kelvin)      0.07741     0.04033     0.03822
 Rotational constants (GHZ):           1.61290     0.84032     0.79634
 Zero-point vibrational energy     139535.9 (Joules/Mol)
                                   33.34987 (Kcal/Mol)
 Warning -- explicit consideration of  16 degrees of freedom as
           vibrations may cause significant error
 Vibrational temperatures:     34.69    99.66   184.09   276.69   318.73
          (Kelvin)            341.55   407.96   457.38   465.22   524.60
                              541.21   641.87   718.88   730.28   782.27
                              875.98   907.98   955.49  1124.71  1293.34
                             1497.77  1638.51  1727.82  1807.98  1818.13
                             1873.14  1877.31  1998.77  2165.52  5477.10

 Zero-point correction=                           0.053146 (Hartree/Particle)
 Thermal correction to Energy=                    0.063461
 Thermal correction to Enthalpy=                  0.064405
 Thermal correction to Gibbs Free Energy=         0.015910
 Sum of electronic and zero-point Energies=          -1199.887530
 Sum of electronic and thermal Energies=             -1199.877215
 Sum of electronic and thermal Enthalpies=           -1199.876271
 Sum of electronic and thermal Free Energies=        -1199.924766

                     E (Thermal)             CV                S
                      KCal/Mol        Cal/Mol-Kelvin    Cal/Mol-Kelvin
 Total                   39.822             35.991            102.066
 Electronic               0.000              0.000              0.000
 Translational            0.889              2.981             41.783
 Rotational               0.889              2.981             30.078
 Vibrational             38.045             30.029             30.205
 Vibration     1          0.593              1.985              6.263
 Vibration     2          0.598              1.969              4.174
 Vibration     3          0.611              1.925              2.977
 Vibration     4          0.634              1.851              2.205
 Vibration     5          0.648              1.808              1.947
 Vibration     6          0.656              1.783              1.822
 Vibration     7          0.682              1.704              1.512
 Vibration     8          0.704              1.639              1.321
 Vibration     9          0.708              1.629              1.293
 Vibration    10          0.738              1.545              1.102
 Vibration    11          0.747              1.521              1.055
 Vibration    12          0.805              1.369              0.808
 Vibration    13          0.855              1.251              0.659
 Vibration    14          0.863              1.233              0.639
 Vibration    15          0.899              1.153              0.557
 Vibration    16          0.968              1.013              0.435

 Optimization completed.
    -- Stationary point found.
 Normal termination of Gaussian 16 at Sat May 24 05:24:05 2025.
