 Gaussian 16, Revision C.01,
 Gaussian 16:  ES64L-G16RevC.01  3-Jul-2019

 ----------------------------------------------------------------------
 #P M062X/Def2TZVPP Symm(None) scf(xqc) pop(None) opt(CalcAll,Cartesian
 )
 ----------------------------------------------------------------------

 ------------------------------
 Gaussian input prepared by ASE
 ------------------------------
 Symbolic Z-matrix:
 Charge =  0 Multiplicity = 1

 SCF Done:  E(RM062X) =  -1199.94051720     A.U. after   13 cycles
 SCF Done:  E(RM062X) =  -1199.94056864     A.U. after   10 cycles

 Isotropic polarizability for W=    0.000000       53.51 Bohr**3.
 End of Minotr F.D. properties file   721 does not exist.

 Optimization completed.
    -- Stationary point found.

                          Input orientation:
 ---------------------------------------------------------------------
 Center     Atomic      Atomic             Coordinates (Angstroms)
 Number     Number       Type             X           Y           Z
 ---------------------------------------------------------------------
      1          6           0       -0.088410   -1.288396   -0.891195
      2          6           0       -0.077967   -0.603227    0.494874
      3          9           0       -1.254647   -0.824135    1.092793
      4          9           0        0.896356   -1.136453    1.226978
      5         16           0        0.195091    1.220425    0.455394
      6          8           0        0.342752    1.615374    1.809825
      7          8           0        1.148406    1.492407   -0.550352
      8          8           0       -1.201950    1.703787   -0.074824
      9          9           0       -0.947328   -0.679981   -1.696057
     10          9           0        1.115152   -1.264411   -1.430152
     11          9           0       -0.466085   -2.550540   -0.736512
     12          1           0       -1.809374    1.851164    0.664985
 ---------------------------------------------------------------------

                      1                      2                      3
                      A                      A                      A
 Frequencies --     47.9584                71.4698               134.3355
 Red. masses --     13.4579                15.8523                16.5747
 Frc consts  --      0.0182                 0.0477                 0.1762
 IR Inten    --      2.0535                 0.5709                 0.4408

                      4                      5                      6
                      A                      A                      A
 Frequencies --    195.9311               224.1626               241.9470
 Red. masses --      6.2111                17.2545                14.8647
 Frc consts  --      0.1405                 0.5108                 0.5127
 IR Inten    --     12.6059                 1.1768                 6.6528

                      7                      8                      9
                      A                      A                      A
 Frequencies --    286.8404               315.4412               323.4410
 Red. masses --     11.5076                17.0002                 6.0646
 Frc consts  --      0.5578                 0.9966                 0.3738
 IR Inten    --      0.7661                 0.1171                 9.6922

                     10                     11                     12
                      A                      A                      A
 Frequencies --    357.4859               380.9635               446.8421
 Red. masses --      2.1842                 4.9205                14.3440
 Frc consts  --      0.1645                 0.4208                 1.6874
 IR Inten    --     44.1498                15.5385                10.7531

                     13                     14                     15
                      A                      A                      A
 Frequencies --    476.6475               528.9315               542.9583
 Red. masses --      3.9589                14.5233                17.8933
 Frc consts  --      0.5299                 2.3940                 3.1079
 IR Inten    --     33.9526                17.3110                20.4479

                     16                     17                     18
                      A                      A                      A
 Frequencies --    609.7898               630.6127               664.2704
 Red. masses --     17.2682                19.2909                17.3938
 Frc consts  --      3.7832                 4.5199                 4.5220
 IR Inten    --      5.2954               109.8457                47.4556

                     19                     20                     21
                      A                      A                      A
 Frequencies --    781.5180               905.4324              1040.9306
 Red. masses --     17.3633                16.6975                13.6570
 Frc consts  --      6.2483                 8.0652                 8.7186
 IR Inten    --     11.3809               186.2248                96.1589

                     22                     23                     24
                      A                      A                      A
 Frequencies --   1144.5231              1196.6513              1255.9183
 Red. masses --      1.1847                13.9869                13.7636
 Frc consts  --      0.9144                11.8007                12.7910
 IR Inten    --     88.4253               126.6794                43.4714

                     25                     26                     27
                      A                      A                      A
 Frequencies --   1275.1328              1287.0368              1310.2123
 Red. masses --     14.8521                13.4938                13.3423
 Frc consts  --     14.2282                13.1694                13.4947
 IR Inten    --    191.0995               197.5497               366.2637

                     28                     29                     30
                      A                      A                      A
 Frequencies --   1390.2678              1502.2196              3803.2912
 Red. masses --     12.6940                15.3162                 1.0657
 Frc consts  --     14.4559                20.3642                 9.0822
 IR Inten    --     82.1875               279.2309               190.6154

 - Thermochemistry -
 -------------------
 Temperature   298.150 Kelvin.  Pressure   1.00000 Atm.
 Atom     1 has atomic number  6 and mass  12.00000

 Molecular mass:   199.95666 amu.
 Principal axes and moments of inertia in atomic units:
                           1         2         3
     Eigenvalues --  1131.852802108.633912245.56583
           X            0.05676  -0.08576   0.99470
           Y            0.89319  -0.44079  -0.08897
           Z            0.44608   0.89350   0.05158
 This molecule is an asymmetric top.
 Rotational symmetry number  1.
 Warning -- assumption of classical behavior for rotation
           may cause significant error
 Rotational temperatures (Kelvin)      0.07652     0.04108     0.03857
 Rotational constants (GHZ):           1.59450     0.85588     0.80369
 Zero-point vibrational energy     139802.6 (Joules/Mol)
                                   33.41361 (Kcal/Mol)
 Warning -- explicit consideration of  16 degrees of freedom as
           vibrations may cause significant error
 Vibrational temperatures:     69.00   102.83   193.28   281.90   322.52
          (Kelvin)            348.11   412.70   453.85   465.36   514.34
                              548.12   642.91   685.79   761.01   781.20
                              877.35   907.31   955.74  1124.43  1302.72
                             1497.67  1646.71  1721.71  1806.99  1834.63
                             1851.76  1885.10  2000.29  2161.36  5472.09

 Zero-point correction=                           0.053248 (Hartree/Particle)
 Thermal correction to Energy=                    0.063481
 Thermal correction to Enthalpy=                  0.064425
 Thermal correction to Gibbs Free Energy=         0.016698
 Sum of electronic and zero-point Energies=          -1199.887321
 Sum of electronic and thermal Energies=             -1199.877088
 Sum of electronic and thermal Enthalpies=           -1199.876143
 Sum of electronic and thermal Free Energies=        -1199.923871

                     E (Thermal)             CV                S
                      KCal/Mol        Cal/Mol-Kelvin    Cal/Mol-Kelvin
 Total                   39.835             35.956            100.451
 Electronic               0.000              0.000              0.000
 Translational            0.889              2.981             41.783
 Rotational               0.889              2.981             30.062
 Vibrational             38.058             29.994             28.606
 Vibration     1          0.595              1.978              4.900
 Vibration     2          0.598              1.968              4.112
 Vibration     3          0.613              1.919              2.883
 Vibration     4          0.636              1.846              2.171
 Vibration     5          0.649              1.804              1.925
 Vibration     6          0.658              1.776              1.789
 Vibration     7          0.684              1.698              1.493
 Vibration     8          0.703              1.644              1.334
 Vibration     9          0.708              1.629              1.293
 Vibration    10          0.733              1.560              1.133
 Vibration    11          0.751              1.511              1.035
 Vibration    12          0.806              1.368              0.805
 Vibration    13          0.833              1.302              0.719
 Vibration    14          0.884              1.186              0.590
 Vibration    15          0.898              1.155              0.559
 Vibration    16          0.969              1.011              0.433

 Normal termination of Gaussian 16 at Sat May 24 09:46:39 2025.
