 Gaussian 16, Revision C.01,
 Gaussian 16:  ES64L-G16RevC.01  3-Jul-2019

 -----------------------------------------------------------------
 #P M062X/Def2TZVPP Symm(None) scf(xqc) pop(None) freq opt(CalcFC)
 -----------------------------------------------------------------

 ------------------------------
 Gaussian input prepared by ASE
 ------------------------------
 Symbolic Z-matrix:
 Charge =  0 Multiplicity = 1

 SCF Done:  E(RM062X) =  -1199.85027823     A.U. after   13 cycles
 SCF Done:  E(RM062X) =  -1199.88857691     A.U. after   12 cycles
 SCF Done:  E(RM062X) =  -1199.91482374     A.U. after   13 cycles
 SCF Done:  E(RM062X) =  -1199.91783674     A.U. after   12 cycles
 SCF Done:  E(RM062X) =  -1199.92950217     A.U. after   13 cycles
 SCF Done:  E(RM062X) =  -1199.93637001     A.U. after   12 cycles
 SCF Done:  E(RM062X) =  -1199.93672633     A.U. after   13 cycles
 SCF Done:  E(RM062X) =  -1199.93789034     A.U. after   11 cycles
 SCF Done:  E(RM062X) =  -1199.93797818     A.U. after   10 cycles
 SCF Done:  E(RM062X) =  -1199.93810479     A.U. after    9 cycles
 SCF Done:  E(RM062X) =  -1199.93960501     A.U. after   11 cycles
 SCF Done:  E(RM062X) =  -1199.93978924     A.U. after   10 cycles
 SCF Done:  E(RM062X) =  -1199.94001096     A.U. after   11 cycles
 SCF Done:  E(RM062X) =  -1199.94021771     A.U. after   10 cycles
 SCF Done:  E(RM062X) =  -1199.94038345     A.U. after   11 cycles
 SCF Done:  E(RM062X) =  -1199.94050261     A.U. after   10 cycles
 SCF Done:  E(RM062X) =  -1199.94055472     A.U. after   10 cycles
 SCF Done:  E(RM062X) =  -1199.94056057     A.U. after    8 cycles
 SCF Done:  E(RM062X) =  -1199.94056066     A.U. after    6 cycles
 Optimization completed.
    -- Stationary point found.
 Normal termination of Gaussian 16 at Sat May 24 08:45:02 2025.

 ---------------------------------------------------------------------
 #P Geom=AllCheck Guess=TCheck SCRF=Check GenChk RM062X/def2TZVPP Freq
 ---------------------------------------------------------------------

 Structure from the checkpoint file:  "2003846667223680600001_r13_insertion_ROR_1_2_5_8_IRC_R_prod.chk"
 ------------------------------
 Gaussian input prepared by ASE
 ------------------------------
 Charge =  0 Multiplicity = 1

                          Input orientation:
 ---------------------------------------------------------------------
 Center     Atomic      Atomic             Coordinates (Angstroms)
 Number     Number       Type             X           Y           Z
 ---------------------------------------------------------------------
      1          6           0       -1.244809   -0.748527   -0.114807
      2          6           0        0.179636   -0.496804    0.433838
      3          9           0        0.101242   -0.272124    1.744141
      4          9           0        0.918261   -1.581091    0.209344
      5         16           0        1.042017    0.930799   -0.357979
      6          8           0        2.359222    0.919965    0.148360
      7          8           0        0.728041    0.891882   -1.741990
      8          8           0        0.293884    2.135644    0.314846
      9          9           0       -1.871161   -1.609670    0.669456
     10          9           0       -1.933254    0.396421   -0.122045
     11          9           0       -1.201463   -1.230662   -1.339668
     12          1           0       -0.480924    2.385291   -0.209865
 ---------------------------------------------------------------------

 SCF Done:  E(RM062X) =  -1199.94056066     A.U. after    1 cycles

 Isotropic polarizability for W=    0.000000       53.45 Bohr**3.
 End of Minotr F.D. properties file   721 does not exist.

                      1                      2                      3
                      A                      A                      A
 Frequencies --     56.3349                70.6681               138.6037
 Red. masses --     12.8014                15.7354                10.5776
 Frc consts  --      0.0239                 0.0463                 0.1197
 IR Inten    --      1.7916                 1.1846                 6.1340

                      4                      5                      6
                      A                      A                      A
 Frequencies --    201.7868               223.2984               240.7722
 Red. masses --     10.5249                13.8091                 9.7501
 Frc consts  --      0.2525                 0.4057                 0.3330
 IR Inten    --      6.5552                 3.1832                 2.5425

                      7                      8                      9
                      A                      A                      A
 Frequencies --    288.0200               309.3021               319.8988
 Red. masses --     16.9940                 3.6309                 7.2479
 Frc consts  --      0.8306                 0.2047                 0.4370
 IR Inten    --      4.9528                31.0102                13.0050

                     10                     11                     12
                      A                      A                      A
 Frequencies --    341.3216               383.2938               447.6021
 Red. masses --      2.7135                 6.5290                14.6242
 Frc consts  --      0.1863                 0.5651                 1.7263
 IR Inten    --     42.7724                15.4326                 6.6732

                     13                     14                     15
                      A                      A                      A
 Frequencies --    470.2703               529.4468               542.4519
 Red. masses --      4.6101                16.4266                17.6345
 Frc consts  --      0.6007                 2.7130                 3.0573
 IR Inten    --     29.4760                13.1332                23.5543

                     16                     17                     18
                      A                      A                      A
 Frequencies --    608.4120               630.5328               665.4257
 Red. masses --     17.6958                20.0227                16.0513
 Frc consts  --      3.8594                 4.6902                 4.1875
 IR Inten    --      3.0836               110.4230                48.8443

                     19                     20                     21
                      A                      A                      A
 Frequencies --    779.6996               903.9972              1036.5567
 Red. masses --     17.4529                16.8205                12.5893
 Frc consts  --      6.2513                 8.0989                 7.9696
 IR Inten    --     10.3604               182.9265                82.7811

                     22                     23                     24
                      A                      A                      A
 Frequencies --   1144.3767              1198.7571              1259.5327
 Red. masses --      1.1982                13.5876                14.4230
 Frc consts  --      0.9245                11.5042                13.4811
 IR Inten    --    121.4158               144.2993                59.6962

                     25                     26                     27
                      A                      A                      A
 Frequencies --   1274.8800              1277.5514              1313.2057
 Red. masses --     12.5047                14.5380                13.3849
 Frc consts  --     11.9746                13.9802                13.5998
 IR Inten    --    240.6858                89.2632               348.9496

                     28                     29                     30
                      A                      A                      A
 Frequencies --   1393.2619              1501.1038              3805.1336
 Red. masses --     12.7136                15.2741                 1.0656
 Frc consts  --     14.5407                20.2781                 9.0906
 IR Inten    --     96.4683               280.2123               172.9970

 - Thermochemistry -
 -------------------
 Temperature   298.150 Kelvin.  Pressure   1.00000 Atm.
 Atom     1 has atomic number  6 and mass  12.00000

 Molecular mass:   199.95666 amu.
 Principal axes and moments of inertia in atomic units:
                           1         2         3
     Eigenvalues --  1137.712262086.522572236.17112
           X            0.77479   0.51170  -0.37131
           Y            0.62755  -0.55114   0.54994
           Z           -0.07676   0.65910   0.74813
 This molecule is an asymmetric top.
 Rotational symmetry number  1.
 Warning -- assumption of classical behavior for rotation
           may cause significant error
 Rotational temperatures (Kelvin)      0.07613     0.04151     0.03873
 Rotational constants (GHZ):           1.58629     0.86495     0.80707
 Zero-point vibrational energy     139696.9 (Joules/Mol)
                                   33.38836 (Kcal/Mol)
 Warning -- explicit consideration of  16 degrees of freedom as
           vibrations may cause significant error
 Vibrational temperatures:     81.05   101.68   199.42   290.33   321.28
          (Kelvin)            346.42   414.40   445.02   460.26   491.09
                              551.47   644.00   676.61   761.76   780.47
                              875.37   907.20   957.40  1121.81  1300.65
                             1491.37  1646.50  1724.74  1812.19  1834.27
                             1838.11  1889.41  2004.59  2159.75  5474.74

 Zero-point correction=                           0.053208 (Hartree/Particle)
 Thermal correction to Energy=                    0.063443
 Thermal correction to Enthalpy=                  0.064387
 Thermal correction to Gibbs Free Energy=         0.016791
 Sum of electronic and zero-point Energies=          -1199.887353
 Sum of electronic and thermal Energies=             -1199.877118
 Sum of electronic and thermal Enthalpies=           -1199.876174
 Sum of electronic and thermal Free Energies=        -1199.923770

                     E (Thermal)             CV                S
                      KCal/Mol        Cal/Mol-Kelvin    Cal/Mol-Kelvin
 Total                   39.811             36.010            100.174
 Electronic               0.000              0.000              0.000
 Translational            0.889              2.981             41.783
 Rotational               0.889              2.981             30.052
 Vibrational             38.033             30.049             28.338
 Vibration     1          0.596              1.975              4.582
 Vibration     2          0.598              1.968              4.135
 Vibration     3          0.614              1.915              2.823
 Vibration     4          0.639              1.837              2.117
 Vibration     5          0.649              1.806              1.932
 Vibration     6          0.658              1.778              1.797
 Vibration     7          0.685              1.696              1.486
 Vibration     8          0.699              1.656              1.366
 Vibration     9          0.706              1.635              1.311
 Vibration    10          0.721              1.593              1.206
 Vibration    11          0.752              1.506              1.026
 Vibration    12          0.807              1.366              0.803
 Vibration    13          0.827              1.316              0.737
 Vibration    14          0.884              1.185              0.588
 Vibration    15          0.898              1.156              0.560
 Vibration    16          0.967              1.014              0.435

 Optimization completed.
    -- Stationary point found.
 Normal termination of Gaussian 16 at Sat May 24 08:50:15 2025.
