 Gaussian 16, Revision C.01,
 Gaussian 16:  ES64L-G16RevC.01  3-Jul-2019

 ----------------------------------------------------------------------
 #P M062X/Def2TZVPP Symm(None) scf(xqc) pop(None) geom(AllCheck,NoKeepC
 onstants) guess(Read) irc(RCFC,forward,MaxPoints=100,StepSize=2)
 ----------------------------------------------------------------------

 Structure from the checkpoint file:  "2003846667223680600001_Intra_Diels_alder_R_6_7_IRC_F.chk"
 ------------------------------
 Gaussian input prepared by ASE
 ------------------------------
 Charge =  0 Multiplicity = 1

 SCF Done:  E(RM062X) =  -1199.93109385     A.U. after    8 cycles
 SCF Done:  E(RM062X) =  -1199.93109974     A.U. after    8 cycles
 SCF Done:  E(RM062X) =  -1199.93110960     A.U. after    8 cycles
 SCF Done:  E(RM062X) =  -1199.93112341     A.U. after    8 cycles
 SCF Done:  E(RM062X) =  -1199.93114112     A.U. after    8 cycles
 SCF Done:  E(RM062X) =  -1199.93116270     A.U. after    8 cycles
 SCF Done:  E(RM062X) =  -1199.93118804     A.U. after    8 cycles
 SCF Done:  E(RM062X) =  -1199.93121705     A.U. after    8 cycles
 SCF Done:  E(RM062X) =  -1199.93124964     A.U. after    8 cycles
 SCF Done:  E(RM062X) =  -1199.93128574     A.U. after    8 cycles
 SCF Done:  E(RM062X) =  -1199.93927030     A.U. after    8 cycles
 SCF Done:  E(RM062X) =  -1199.93934130     A.U. after    8 cycles
 SCF Done:  E(RM062X) =  -1199.93941016     A.U. after    8 cycles
 SCF Done:  E(RM062X) =  -1199.93947686     A.U. after    8 cycles
 SCF Done:  E(RM062X) =  -1199.93954141     A.U. after    8 cycles
 SCF Done:  E(RM062X) =  -1199.93960383     A.U. after    8 cycles
 SCF Done:  E(RM062X) =  -1199.93966417     A.U. after    8 cycles
 SCF Done:  E(RM062X) =  -1199.93972247     A.U. after    8 cycles
 SCF Done:  E(RM062X) =  -1199.93977875     A.U. after    8 cycles
 SCF Done:  E(RM062X) =  -1199.93983297     A.U. after    8 cycles

                          Input orientation:
 ---------------------------------------------------------------------
 Center     Atomic      Atomic             Coordinates (Angstroms)
 Number     Number       Type             X           Y           Z
 ---------------------------------------------------------------------
      1          6           0       -1.187019   -0.880886    0.024385
      2          6           0       -0.445126    0.468401   -0.107552
      3          9           0       -0.669651    0.962970   -1.335912
      4          9           0       -0.920070    1.320034    0.794280
      5         16           0        1.381929    0.321043    0.120893
      6          8           0        1.817958   -0.718851   -0.739046
      7          8           0        1.658115    0.347396    1.504164
      8          8           0        1.796410    1.725092   -0.451628
      9          9           0       -0.916433   -1.664428   -1.003202
     10          9           0       -0.823467   -1.481847    1.146754
     11          9           0       -2.491464   -0.650259    0.057469
     12          1           0        1.652277    1.768842   -1.408608
 ---------------------------------------------------------------------

 Normal termination of Gaussian 16 at Sat May 24 07:26:42 2025.
