 Gaussian 16, Revision C.01,
 Gaussian 16:  ES64L-G16RevC.01  3-Jul-2019

 ----------------------------------------------------------------------
 #P M062X/Def2TZVPP Symm(None) scf(xqc) pop(None) opt(CalcAll,Cartesian
 )
 ----------------------------------------------------------------------

 ------------------------------
 Gaussian input prepared by ASE
 ------------------------------
 Symbolic Z-matrix:
 Charge =  0 Multiplicity = 1

 SCF Done:  E(RM062X) =  -1199.97467078     A.U. after   14 cycles
 SCF Done:  E(RM062X) =  -1199.97432469     A.U. after   15 cycles
 SCF Done:  E(RM062X) =  -1199.97465757     A.U. after   12 cycles
 SCF Done:  E(RM062X) =  -1199.97467292     A.U. after    9 cycles
 SCF Done:  E(RM062X) =  -1199.97468004     A.U. after   13 cycles
 SCF Done:  E(RM062X) =  -1199.97468554     A.U. after   12 cycles
 SCF Done:  E(RM062X) =  -1199.97463917     A.U. after   13 cycles
 SCF Done:  E(RM062X) =  -1199.97468145     A.U. after   12 cycles
 SCF Done:  E(RM062X) =  -1199.97061772     A.U. after   13 cycles
 SCF Done:  E(RM062X) =  -1199.97468575     A.U. after    9 cycles
 SCF Done:  E(RM062X) =  -1199.97468643     A.U. after   12 cycles
 SCF Done:  E(RM062X) =  -1199.97468657     A.U. after    8 cycles

 Isotropic polarizability for W=    0.000000       54.07 Bohr**3.
 End of Minotr F.D. properties file   721 does not exist.

 Optimization completed.
    -- Stationary point found.

                          Input orientation:
 ---------------------------------------------------------------------
 Center     Atomic      Atomic             Coordinates (Angstroms)
 Number     Number       Type             X           Y           Z
 ---------------------------------------------------------------------
      1          6           0        0.578396   -1.334930   -0.703034
      2          6           0        0.566054    0.124924   -1.212333
      3          9           0        1.322128    0.840434   -0.340725
      4          9           0        1.165124    0.152168   -2.399245
      5         16           0       -0.267972    1.159660    2.449904
      6          8           0       -0.666945    0.635825   -1.332300
      7          8           0       -0.658539    1.598179    3.743561
      8          8           0       -1.226700    1.282788    1.392007
      9          9           0       -0.010037   -1.384932    0.498170
     10          9           0       -0.089581   -2.119989   -1.530113
     11          9           0        1.816244   -1.788536   -0.579749
     12          1           0       -1.025798    0.838170   -0.452494
 ---------------------------------------------------------------------

                      1                      2                      3
                      A                      A                      A
 Frequencies --     35.2268                44.7576                53.2762
 Red. masses --     16.2793                18.3333                22.4805
 Frc consts  --      0.0119                 0.0216                 0.0376
 IR Inten    --      3.6049                 1.5109                10.1564

                      4                      5                      6
                      A                      A                      A
 Frequencies --     64.3256                83.5617               107.1739
 Red. masses --     18.9620                16.4650                14.3869
 Frc consts  --      0.0462                 0.0677                 0.0974
 IR Inten    --      1.4337                 0.3178                 0.0880

                      7                      8                      9
                      A                      A                      A
 Frequencies --    144.2441               223.6299               224.3225
 Red. masses --     13.0800                15.9354                15.1609
 Frc consts  --      0.1603                 0.4695                 0.4495
 IR Inten    --      8.9011                 4.0463                 3.0875

                     10                     11                     12
                      A                      A                      A
 Frequencies --    355.5328               385.0479               392.3213
 Red. masses --     16.6356                11.1226                10.2041
 Frc consts  --      1.2389                 0.9716                 0.9254
 IR Inten    --      0.2475                 1.8307                 6.5851

                     13                     14                     15
                      A                      A                      A
 Frequencies --    488.0811               523.8379               547.1255
 Red. masses --      1.6305                15.7832                 2.8078
 Frc consts  --      0.2289                 2.5518                 0.4952
 IR Inten    --     70.9587                 4.4706                59.0301

                     16                     17                     18
                      A                      A                      A
 Frequencies --    558.1311               624.0470               628.7515
 Red. masses --     14.9277                 9.7332                15.7683
 Frc consts  --      2.7398                 2.2333                 3.6728
 IR Inten    --     32.3561                 5.0978                 1.6592

                     19                     20                     21
                      A                      A                      A
 Frequencies --    724.5476               829.8663              1115.5788
 Red. masses --     15.6101                16.5097                 9.2463
 Frc consts  --      4.8282                 6.6989                 6.7799
 IR Inten    --     36.7935                 1.2879               233.6280

                     22                     23                     24
                      A                      A                      A
 Frequencies --   1145.6479              1247.8066              1259.8305
 Red. masses --      2.9246                15.5743                13.1205
 Frc consts  --      2.2616                14.2874                12.2695
 IR Inten    --    134.5004                22.7468               270.6574

                     25                     26                     27
                      A                      A                      A
 Frequencies --   1295.9862              1307.4605              1416.6819
 Red. masses --      6.5397                 9.5767                 2.8966
 Frc consts  --      6.4716                 9.6455                 3.4251
 IR Inten    --    121.8102               550.5640               359.5386

                     28                     29                     30
                      A                      A                      A
 Frequencies --   1444.7268              1454.1924              3718.1189
 Red. masses --     15.2117                 5.4030                 1.0659
 Frc consts  --     18.7068                 6.7317                 8.6817
 IR Inten    --    187.9657                 2.6824               595.2388

 - Thermochemistry -
 -------------------
 Temperature   298.150 Kelvin.  Pressure   1.00000 Atm.
 Atom     1 has atomic number  6 and mass  12.00000

 Molecular mass:   199.95666 amu.
 Principal axes and moments of inertia in atomic units:
                           1         2         3
     Eigenvalues --  1038.649223472.291163760.29358
           X           -0.27252  -0.04087   0.96128
           Y            0.47220   0.86482   0.17064
           Z            0.83831  -0.50041   0.21638
 This molecule is an asymmetric top.
 Rotational symmetry number  1.
 Warning -- assumption of classical behavior for rotation
           may cause significant error
 Rotational temperatures (Kelvin)      0.08339     0.02494     0.02303
 Rotational constants (GHZ):           1.73758     0.51976     0.47995
 Zero-point vibrational energy     134244.0 (Joules/Mol)
                                   32.08508 (Kcal/Mol)
 Warning -- explicit consideration of  16 degrees of freedom as
           vibrations may cause significant error
 Vibrational temperatures:     50.68    64.40    76.65    92.55   120.23
          (Kelvin)            154.20   207.54   321.75   322.75   511.53
                              554.00   564.46   702.24   753.69   787.19
                              803.03   897.86   904.63  1042.46  1193.99
                             1605.07  1648.33  1795.32  1812.62  1864.64
                             1881.14  2038.29  2078.64  2092.26  5349.54

 Zero-point correction=                           0.051131 (Hartree/Particle)
 Thermal correction to Energy=                    0.062888
 Thermal correction to Enthalpy=                  0.063832
 Thermal correction to Gibbs Free Energy=         0.010084
 Sum of electronic and zero-point Energies=          -1199.923556
 Sum of electronic and thermal Energies=             -1199.911798
 Sum of electronic and thermal Enthalpies=           -1199.910854
 Sum of electronic and thermal Free Energies=        -1199.964603

                     E (Thermal)             CV                S
                      KCal/Mol        Cal/Mol-Kelvin    Cal/Mol-Kelvin
 Total                   39.463             37.353            113.124
 Electronic               0.000              0.000              0.000
 Translational            0.889              2.981             41.783
 Rotational               0.889              2.981             30.984
 Vibrational             37.686             31.392             40.356
 Vibration     1          0.594              1.982              5.511
 Vibration     2          0.595              1.979              5.037
 Vibration     3          0.596              1.976              4.692
 Vibration     4          0.597              1.971              4.320
 Vibration     5          0.600              1.960              3.805
 Vibration     6          0.606              1.943              3.319
 Vibration     7          0.616              1.909              2.747
 Vibration     8          0.649              1.805              1.930
 Vibration     9          0.649              1.804              1.924
 Vibration    10          0.731              1.564              1.142
 Vibration    11          0.754              1.502              1.019
 Vibration    12          0.760              1.487              0.991
 Vibration    13          0.844              1.276              0.689
 Vibration    14          0.879              1.197              0.601
 Vibration    15          0.902              1.146              0.550
 Vibration    16          0.914              1.122              0.528

 Normal termination of Gaussian 16 at Sat May 24 08:34:03 2025.
