 Gaussian 16, Revision C.01,
 Gaussian 16:  ES64L-G16RevC.01  3-Jul-2019

 ----------------------------------------------------------------------
 #P M062X/Def2TZVPP Symm(None) scf(xqc) pop(None) geom(AllCheck,NoKeepC
 onstants) guess(Read) irc(RCFC,forward,MaxPoints=100,StepSize=2)
 ----------------------------------------------------------------------

 Structure from the checkpoint file:  "2003846667223680600001_r13_insertion_ROR_3_2_5_8_IRC_F.chk"
 ------------------------------
 Gaussian input prepared by ASE
 ------------------------------
 Charge =  0 Multiplicity = 1

 SCF Done:  E(RM062X) =  -1199.83931435     A.U. after   10 cycles

                          Input orientation:
 ---------------------------------------------------------------------
 Center     Atomic      Atomic             Coordinates (Angstroms)
 Number     Number       Type             X           Y           Z
 ---------------------------------------------------------------------
      1          6           0       -0.009338   -1.178519   -0.866270
      2          6           0        0.271502   -0.332735    0.401799
      3          9           0       -2.265705   -0.623533    0.683129
      4          9           0        0.322620   -0.998201    1.457818
      5         16           0        0.504518    1.482983    0.420708
      6          8           0        1.191255    1.752645    1.631663
      7          8           0        1.115369    1.774530   -0.826788
      8          8           0       -0.949258    1.596378    0.461006
      9          9           0       -0.751406   -0.528464   -1.722726
     10          9           0        1.204067   -1.384302   -1.373294
     11          9           0       -0.548020   -2.336551   -0.560361
     12          1           0       -2.242692    0.308375    0.660720
 ---------------------------------------------------------------------

 Normal termination of Gaussian 16 at Sat May 24 08:44:21 2025.
