 Gaussian 16, Revision C.01,
 Gaussian 16:  ES64L-G16RevC.01  3-Jul-2019

 ----------------------------------------------------------------------
 #P M062X/Def2TZVPP Symm(None) scf(xqc) pop(None) opt(NoFreeze,TS,CalcA
 ll,NoEigentest,MaxCycle=999)
 ----------------------------------------------------------------------

 ------------------------------
 Gaussian input prepared by ASE
 ------------------------------
 Symbolic Z-matrix:
 Charge =  0 Multiplicity = 1

 SCF Done:  E(RM062X) =  -1199.69461641     A.U. after   16 cycles
 SCF Done:  E(RM062X) =  -1199.72412561     A.U. after   13 cycles
 SCF Done:  E(RM062X) =  -1199.75033341     A.U. after   14 cycles
 SCF Done:  E(RM062X) =  -1199.76096122     A.U. after   15 cycles
 SCF Done:  E(RM062X) =  -1199.76267117     A.U. after   14 cycles
 SCF Done:  E(RM062X) =  -1199.76397482     A.U. after   14 cycles
 SCF Done:  E(RM062X) =  -1199.76409558     A.U. after   12 cycles
 SCF Done:  E(RM062X) =  -1199.76409909     A.U. after   10 cycles

 Isotropic polarizability for W=    0.000000       59.14 Bohr**3.
 End of Minotr F.D. properties file   721 does not exist.

 Optimization completed.
    -- Stationary point found.

                          Input orientation:
 ---------------------------------------------------------------------
 Center     Atomic      Atomic             Coordinates (Angstroms)
 Number     Number       Type             X           Y           Z
 ---------------------------------------------------------------------
      1          6           0       -0.639583   -1.066889    0.582330
      2          6           0       -0.094144    0.041475   -0.364908
      3          9           0       -0.501269   -0.123626   -1.603513
      4          9           0       -0.593349    1.188540    0.091515
      5         16           0        1.695901   -0.227328    0.028277
      6          8           0        1.482476   -0.836928    1.336071
      7          8           0        2.767535   -0.362488   -0.901306
      8          8           0        1.913839    1.313977    0.487658
      9          9           0        0.967776   -1.860806   -0.670805
     10          9           0       -0.974750   -0.748354    1.753310
     11          9           0       -1.202252   -2.116487    0.205942
     12          1           0        2.625751    1.678503   -0.050374
 ---------------------------------------------------------------------

 ******    1 imaginary frequencies (negative Signs) ******

                      1                      2                      3
                      A                      A                      A
 Frequencies --   -332.8048               110.6583               128.1327
 Red. masses --     15.8220                12.7722                15.1507
 Frc consts  --      1.0325                 0.0921                 0.1466
 IR Inten    --     19.8624                 5.1052               201.7692

                      4                      5                      6
                      A                      A                      A
 Frequencies --    176.1338               190.7813               253.3250
 Red. masses --     16.7443                13.0093                18.1556
 Frc consts  --      0.3061                 0.2790                 0.6865
 IR Inten    --      0.7953                 6.0892                 5.7690

                      7                      8                      9
                      A                      A                      A
 Frequencies --    283.5370               296.3979               301.8181
 Red. masses --     15.1037                16.1872                14.2520
 Frc consts  --      0.7154                 0.8379                 0.7649
 IR Inten    --     14.4718                 4.3201                27.3918

                     10                     11                     12
                      A                      A                      A
 Frequencies --    344.7822               375.7776               412.4395
 Red. masses --      2.7114                 1.9535                16.5446
 Frc consts  --      0.1899                 0.1625                 1.6582
 IR Inten    --     73.9535                31.4532                53.7846

                     13                     14                     15
                      A                      A                      A
 Frequencies --    443.0737               506.7035               535.6857
 Red. masses --     12.4991                 6.6723                 9.2066
 Frc consts  --      1.4457                 1.0093                 1.5566
 IR Inten    --     50.6769                 6.2064                 9.2955

                     16                     17                     18
                      A                      A                      A
 Frequencies --    561.0172               582.9223               640.9563
 Red. masses --     13.8456                17.4150                14.4553
 Frc consts  --      2.5675                 3.4865                 3.4989
 IR Inten    --     94.6975                57.0083                56.4375

                     19                     20                     21
                      A                      A                      A
 Frequencies --    675.1502               772.5873               796.2325
 Red. masses --     14.5308                16.3602                15.9328
 Frc consts  --      3.9025                 5.7535                 5.9514
 IR Inten    --     38.6198                34.2465               245.3926

                     22                     23                     24
                      A                      A                      A
 Frequencies --    961.2296              1125.0711              1166.0716
 Red. masses --     13.0508                12.0286                 1.2953
 Frc consts  --      7.1046                 8.9706                 1.0377
 IR Inten    --     14.5566               187.3794               160.9374

                     25                     26                     27
                      A                      A                      A
 Frequencies --   1211.2923              1310.1251              1404.2046
 Red. masses --     13.0007                12.7352                10.0504
 Frc consts  --     11.2386                12.8790                11.6760
 IR Inten    --     91.4462               152.6664               377.9559

                     28                     29                     30
                      A                      A                      A
 Frequencies --   1453.7285              1532.0945              3856.2906
 Red. masses --     13.2933                13.4232                 1.0658
 Frc consts  --     16.5520                18.5643                 9.3381
 IR Inten    --    220.8950               376.3253               160.6196

 - Thermochemistry -
 -------------------
 Temperature   298.150 Kelvin.  Pressure   1.00000 Atm.
 Atom     1 has atomic number  6 and mass  12.00000

 Molecular mass:   199.95666 amu.
 Principal axes and moments of inertia in atomic units:
                           1         2         3
     Eigenvalues --  1229.979401904.736142007.16637
           X            0.91251  -0.31811   0.25714
           Y            0.36632   0.91525  -0.16770
           Z           -0.18200   0.24723   0.95171
 This molecule is an asymmetric top.
 Rotational symmetry number  1.
 Warning -- assumption of classical behavior for rotation
           may cause significant error
 Rotational temperatures (Kelvin)      0.07042     0.04547     0.04315
 Rotational constants (GHZ):           1.46729     0.94750     0.89915
    1 imaginary frequencies ignored.
 Zero-point vibrational energy     134030.9 (Joules/Mol)
                                   32.03416 (Kcal/Mol)
 Warning -- explicit consideration of  16 degrees of freedom as
           vibrations may cause significant error
 Vibrational temperatures:    159.21   184.35   253.42   274.49   364.48
          (Kelvin)            407.95   426.45   434.25   496.06   540.66
                              593.41   637.48   729.03   770.73   807.18
                              838.70   922.19   971.39  1111.58  1145.60
                             1382.99  1618.73  1677.72  1742.78  1884.98
                             2020.34  2091.59  2204.34  5548.34

 Zero-point correction=                           0.051050 (Hartree/Particle)
 Thermal correction to Energy=                    0.060814
 Thermal correction to Enthalpy=                  0.061758
 Thermal correction to Gibbs Free Energy=         0.016012
 Sum of electronic and zero-point Energies=          -1199.713049
 Sum of electronic and thermal Energies=             -1199.703285
 Sum of electronic and thermal Enthalpies=           -1199.702341
 Sum of electronic and thermal Free Energies=        -1199.748087

                     E (Thermal)             CV                S
                      KCal/Mol        Cal/Mol-Kelvin    Cal/Mol-Kelvin
 Total                   38.161             35.568             96.282
 Electronic               0.000              0.000              0.000
 Translational            0.889              2.981             41.783
 Rotational               0.889              2.981             29.932
 Vibrational             36.384             29.606             24.567
 Vibration     1          0.606              1.941              3.257
 Vibration     2          0.611              1.925              2.974
 Vibration     3          0.628              1.872              2.369
 Vibration     4          0.634              1.853              2.220
 Vibration     5          0.664              1.757              1.707
 Vibration     6          0.682              1.704              1.512
 Vibration     7          0.690              1.680              1.437
 Vibration     8          0.694              1.670              1.407
 Vibration     9          0.723              1.586              1.190
 Vibration    10          0.747              1.522              1.056
 Vibration    11          0.776              1.443              0.918
 Vibration    12          0.803              1.376              0.817
 Vibration    13          0.862              1.235              0.642
 Vibration    14          0.891              1.171              0.575
 Vibration    15          0.917              1.116              0.522
 Vibration    16          0.940              1.068              0.480

 Normal termination of Gaussian 16 at Sat May 24 03:19:12 2025.
