 Gaussian 16, Revision C.01,
 Gaussian 16:  ES64L-G16RevC.01  3-Jul-2019

 ----------------------------------------------------------------------
 #P M062X/Def2TZVPP Symm(None) scf(xqc) pop(None) geom(AllCheck,NoKeepC
 onstants) guess(Read) irc(RCFC,forward,MaxPoints=100,StepSize=2)
 ----------------------------------------------------------------------

 Structure from the checkpoint file:  "2003846667223680600001_intra_H_migration_suprafacial_6_12_IRC_F.chk"
 ------------------------------
 Gaussian input prepared by ASE
 ------------------------------
 Charge =  0 Multiplicity = 1

 SCF Done:  E(RM062X) =  -1199.85991354     A.U. after   10 cycles
 SCF Done:  E(RM062X) =  -1199.85998342     A.U. after   11 cycles
 SCF Done:  E(RM062X) =  -1199.86010156     A.U. after   11 cycles
 SCF Done:  E(RM062X) =  -1199.86026880     A.U. after   11 cycles
 SCF Done:  E(RM062X) =  -1199.86048551     A.U. after   11 cycles
 SCF Done:  E(RM062X) =  -1199.86075156     A.U. after   11 cycles
 SCF Done:  E(RM062X) =  -1199.86106651     A.U. after   11 cycles
 SCF Done:  E(RM062X) =  -1199.86142974     A.U. after   11 cycles
 SCF Done:  E(RM062X) =  -1199.86184064     A.U. after   11 cycles
 SCF Done:  E(RM062X) =  -1199.86229873     A.U. after   11 cycles
 SCF Done:  E(RM062X) =  -1199.92677764     A.U. after   10 cycles
 SCF Done:  E(RM062X) =  -1199.92719151     A.U. after   10 cycles
 SCF Done:  E(RM062X) =  -1199.92760026     A.U. after   10 cycles
 SCF Done:  E(RM062X) =  -1199.92800397     A.U. after   10 cycles
 SCF Done:  E(RM062X) =  -1199.92840274     A.U. after   10 cycles
 SCF Done:  E(RM062X) =  -1199.92879662     A.U. after   10 cycles
 SCF Done:  E(RM062X) =  -1199.92918571     A.U. after   10 cycles
 SCF Done:  E(RM062X) =  -1199.92957008     A.U. after   10 cycles
 SCF Done:  E(RM062X) =  -1199.92994985     A.U. after   10 cycles
 SCF Done:  E(RM062X) =  -1199.93032512     A.U. after   10 cycles

                          Input orientation:
 ---------------------------------------------------------------------
 Center     Atomic      Atomic             Coordinates (Angstroms)
 Number     Number       Type             X           Y           Z
 ---------------------------------------------------------------------
      1          6           0        0.920390   -1.199415   -0.665340
      2          6           0        0.294983    0.178056   -0.956691
      3          9           0        0.948294    0.764105   -1.950133
      4          9           0       -0.972250    0.005648   -1.323608
      5         16           0       -1.013516    0.981935    1.784273
      6          8           0        0.389056    0.980936    0.135061
      7          8           0       -2.101167    0.176460    1.341455
      8          8           0       -1.138009    2.381235    2.008255
      9          9           0        2.219564   -1.059454   -0.420723
     10          9           0        0.349524   -1.718563    0.421877
     11          9           0        0.746816   -2.005808   -1.684207
     12          1           0        0.858690    0.518628    0.843431
 ---------------------------------------------------------------------

 Normal termination of Gaussian 16 at Sat May 24 06:40:15 2025.
