 Gaussian 16, Revision C.01,
 Gaussian 16:  ES64L-G16RevC.01  3-Jul-2019

 -----------------------------------------------------------------
 #P M062X/Def2TZVPP Symm(None) scf(xqc) pop(None) freq opt(CalcFC)
 -----------------------------------------------------------------

 ------------------------------
 Gaussian input prepared by ASE
 ------------------------------
 Symbolic Z-matrix:
 Charge =  0 Multiplicity = 1

 SCF Done:  E(RM062X) =  -1199.83387139     A.U. after   13 cycles
 SCF Done:  E(RM062X) =  -1199.83893216     A.U. after   13 cycles
 SCF Done:  E(RM062X) =  -1199.83946373     A.U. after   13 cycles
 SCF Done:  E(RM062X) =  -1199.84121799     A.U. after   15 cycles
 SCF Done:  E(RM062X) =  -1199.84304926     A.U. after   12 cycles
 SCF Done:  E(RM062X) =  -1199.84325509     A.U. after   11 cycles
 SCF Done:  E(RM062X) =  -1199.84344672     A.U. after   10 cycles
 SCF Done:  E(RM062X) =  -1199.84355279     A.U. after   11 cycles
 SCF Done:  E(RM062X) =  -1199.84357278     A.U. after   10 cycles
 SCF Done:  E(RM062X) =  -1199.84357910     A.U. after    8 cycles
 SCF Done:  E(RM062X) =  -1199.84358057     A.U. after    8 cycles
 SCF Done:  E(RM062X) =  -1199.84358075     A.U. after    7 cycles
 Optimization completed.
    -- Stationary point found.
 Normal termination of Gaussian 16 at Sat May 24 05:19:41 2025.

 ---------------------------------------------------------------------
 #P Geom=AllCheck Guess=TCheck SCRF=Check GenChk RM062X/def2TZVPP Freq
 ---------------------------------------------------------------------

 Structure from the checkpoint file:  "2003846667223680600001_r12_insertion_R_2_1_9_IRC_F_prod.chk"
 ------------------------------
 Gaussian input prepared by ASE
 ------------------------------
 Charge =  0 Multiplicity = 1

                          Input orientation:
 ---------------------------------------------------------------------
 Center     Atomic      Atomic             Coordinates (Angstroms)
 Number     Number       Type             X           Y           Z
 ---------------------------------------------------------------------
      1          6           0       -0.809122   -0.481208    0.763163
      2          6           0       -0.751483    0.480463   -0.477130
      3          9           0       -1.356975    0.042582   -1.550757
      4          9           0       -1.142728    1.705249   -0.229016
      5         16           0        1.138472    0.118585   -0.320185
      6          8           0        0.547500   -0.751688    0.926216
      7          8           0        2.543944   -0.003641   -0.569716
      8          8           0        1.205068    1.552913    0.472261
      9          9           0        0.765002   -1.101007   -1.384788
     10          9           0       -1.301892    0.109002    1.839026
     11          9           0       -1.490929   -1.587113    0.527348
     12          1           0        2.121796    1.715020    0.727006
 ---------------------------------------------------------------------

 SCF Done:  E(RM062X) =  -1199.84358075     A.U. after    1 cycles

 Isotropic polarizability for W=    0.000000       56.20 Bohr**3.
 End of Minotr F.D. properties file   721 does not exist.

                      1                      2                      3
                      A                      A                      A
 Frequencies --     61.3693               106.5101               206.3447
 Red. masses --     13.3584                15.1123                18.7510
 Frc consts  --      0.0296                 0.1010                 0.4704
 IR Inten    --      0.9531                 0.3548                 0.2767

                      4                      5                      6
                      A                      A                      A
 Frequencies --    250.2098               275.0268               284.9413
 Red. masses --     16.9736                16.8431                15.3013
 Frc consts  --      0.6261                 0.7506                 0.7320
 IR Inten    --      0.3083                 2.4320                 2.5077

                      7                      8                      9
                      A                      A                      A
 Frequencies --    304.1930               353.0119               375.3100
 Red. masses --      7.5856                14.3747                 6.6022
 Frc consts  --      0.4136                 1.0554                 0.5479
 IR Inten    --      3.9158                 5.4907                 7.6574

                     10                     11                     12
                      A                      A                      A
 Frequencies --    446.1630               475.6374               500.8190
 Red. masses --      1.7512                11.6905                14.4348
 Frc consts  --      0.2054                 1.5582                 2.1332
 IR Inten    --     27.3532                 1.8599                40.2505

                     13                     14                     15
                      A                      A                      A
 Frequencies --    539.3493               585.1880               604.4005
 Red. masses --      4.0844                15.6356                10.5750
 Frc consts  --      0.7000                 3.1547                 2.2760
 IR Inten    --     80.4821                49.1185                 9.7617

                     16                     17                     18
                      A                      A                      A
 Frequencies --    635.9407               642.3754               656.9991
 Red. masses --     16.7762                10.9213                11.9783
 Frc consts  --      3.9974                 2.6552                 3.0463
 IR Inten    --      3.6050                29.4294                28.1035

                     19                     20                     21
                      A                      A                      A
 Frequencies --    742.9312               794.9400               852.9650
 Red. masses --     15.8665                20.3480                16.3212
 Frc consts  --      5.1598                 7.5760                 6.9962
 IR Inten    --      7.2826               405.5724               119.1317

                     22                     23                     24
                      A                      A                      A
 Frequencies --    903.7268              1121.4955              1164.0293
 Red. masses --     13.2101                 2.4189                 2.5800
 Frc consts  --      6.3567                 1.7925                 2.0597
 IR Inten    --    140.6696               122.7392               175.1052

                     25                     26                     27
                      A                      A                      A
 Frequencies --   1263.1922              1306.9237              1325.1085
 Red. masses --     10.1893                13.2286                 8.9726
 Frc consts  --      9.5793                13.3126                 9.2826
 IR Inten    --    187.4639               304.4222               333.0052

                     28                     29                     30
                      A                      A                      A
 Frequencies --   1360.8673              1404.1582              3840.6962
 Red. masses --     10.9138                11.8718                 1.0657
 Frc consts  --     11.9085                13.7911                 9.2620
 IR Inten    --    134.5830               125.8012               159.9737

 - Thermochemistry -
 -------------------
 Temperature   298.150 Kelvin.  Pressure   1.00000 Atm.
 Atom     1 has atomic number  6 and mass  12.00000

 Molecular mass:   199.95666 amu.
 Principal axes and moments of inertia in atomic units:
                           1         2         3
     Eigenvalues --  1255.226991869.679391936.97566
           X            0.94661   0.05659   0.31737
           Y            0.10345   0.87908  -0.46531
           Z           -0.30533   0.47330   0.82630
 This molecule is an asymmetric top.
 Rotational symmetry number  1.
 Warning -- assumption of classical behavior for rotation
           may cause significant error
 Rotational temperatures (Kelvin)      0.06900     0.04633     0.04472
 Rotational constants (GHZ):           1.43778     0.96527     0.93173
 Zero-point vibrational energy     139872.3 (Joules/Mol)
                                   33.43028 (Kcal/Mol)
 Warning -- explicit consideration of  15 degrees of freedom as
           vibrations may cause significant error
 Vibrational temperatures:     88.30   153.24   296.88   360.00   395.70
          (Kelvin)            409.97   437.67   507.91   539.99   641.93
                              684.34   720.57   776.00   841.95   869.60
                              914.98   924.23   945.28  1068.91  1143.74
                             1227.23  1300.26  1613.58  1674.78  1817.45
                             1880.37  1906.54  1957.98  2020.27  5525.91

 Zero-point correction=                           0.053275 (Hartree/Particle)
 Thermal correction to Energy=                    0.062729
 Thermal correction to Enthalpy=                  0.063673
 Thermal correction to Gibbs Free Energy=         0.018197
 Sum of electronic and zero-point Energies=          -1199.790306
 Sum of electronic and thermal Energies=             -1199.780852
 Sum of electronic and thermal Enthalpies=           -1199.779908
 Sum of electronic and thermal Free Energies=        -1199.825383

                     E (Thermal)             CV                S
                      KCal/Mol        Cal/Mol-Kelvin    Cal/Mol-Kelvin
 Total                   39.363             35.270             95.712
 Electronic               0.000              0.000              0.000
 Translational            0.889              2.981             41.783
 Rotational               0.889              2.981             29.898
 Vibrational             37.586             29.309             24.031
 Vibration     1          0.597              1.973              4.413
 Vibration     2          0.605              1.944              3.332
 Vibration     3          0.641              1.831              2.076
 Vibration     4          0.663              1.762              1.729
 Vibration     5          0.677              1.720              1.564
 Vibration     6          0.683              1.702              1.504
 Vibration     7          0.695              1.666              1.394
 Vibration     8          0.729              1.569              1.153
 Vibration     9          0.746              1.523              1.058
 Vibration    10          0.805              1.369              0.807
 Vibration    11          0.832              1.304              0.722
 Vibration    12          0.856              1.248              0.656
 Vibration    13          0.894              1.163              0.567
 Vibration    14          0.942              1.063              0.476
 Vibration    15          0.963              1.022              0.442

                           ! Non-Optimized Parameters !
 Normal termination of Gaussian 16 at Sat May 24 05:24:51 2025.
