 Gaussian 16, Revision C.01,
 Gaussian 16:  ES64L-G16RevC.01  3-Jul-2019

 ----------------------------------------------------------------------
 #P M062X/Def2TZVPP Symm(None) scf(xqc) pop(None) freq opt(CalcFC, Tigh
 t)
 ----------------------------------------------------------------------

 ------------------------------
 Gaussian input prepared by ASE
 ------------------------------
 Symbolic Z-matrix:
 Charge =  0 Multiplicity = 1

 SCF Done:  E(RM062X) =  -1199.82743879     A.U. after   16 cycles
 SCF Done:  E(RM062X) =  -1199.89238371     A.U. after   13 cycles
 SCF Done:  E(RM062X) =  -1199.93259908     A.U. after   12 cycles
 SCF Done:  E(RM062X) =  -1199.91977881     A.U. after   12 cycles
 SCF Done:  E(RM062X) =  -1199.93417665     A.U. after   11 cycles
 SCF Done:  E(RM062X) =  -1199.93526130     A.U. after   12 cycles
 SCF Done:  E(RM062X) =  -1199.93651060     A.U. after   12 cycles
 SCF Done:  E(RM062X) =  -1199.89758962     A.U. after   13 cycles
 SCF Done:  E(RM062X) =  -1199.93768574     A.U. after   12 cycles
 SCF Done:  E(RM062X) =  -1199.93835155     A.U. after   12 cycles
 SCF Done:  E(RM062X) =  -1199.94051077     A.U. after   12 cycles
 SCF Done:  E(RM062X) =  -1199.94052827     A.U. after   11 cycles
 SCF Done:  E(RM062X) =  -1199.94055685     A.U. after   10 cycles
 SCF Done:  E(RM062X) =  -1199.94056020     A.U. after    8 cycles
 SCF Done:  E(RM062X) =  -1199.94056041     A.U. after    7 cycles
 SCF Done:  E(RM062X) =  -1199.94056042     A.U. after    5 cycles
 SCF Done:  E(RM062X) =  -1199.94056042     A.U. after    4 cycles
 SCF Done:  E(RM062X) =  -1199.94056042     A.U. after    3 cycles
 SCF Done:  E(RM062X) =  -1199.94056042     A.U. after    3 cycles
 Optimization completed.
    -- Stationary point found.
 Normal termination of Gaussian 16 at Fri May 23 23:27:40 2025.

 ---------------------------------------------------------------------
 #P Geom=AllCheck Guess=TCheck SCRF=Check GenChk RM062X/def2TZVPP Freq
 ---------------------------------------------------------------------

 Structure from the checkpoint file:  "2003846667223680600001_well.chk"
 ------------------------------
 Gaussian input prepared by ASE
 ------------------------------
 Charge =  0 Multiplicity = 1

                          Input orientation:
 ---------------------------------------------------------------------
 Center     Atomic      Atomic             Coordinates (Angstroms)
 Number     Number       Type             X           Y           Z
 ---------------------------------------------------------------------
      1          6           0        1.536185    0.060429    0.239205
      2          6           0        0.277186   -0.515441   -0.449164
      3          9           0        0.202366   -0.023425   -1.691299
      4          9           0        0.389542   -1.839673   -0.505032
      5         16           0       -1.314157   -0.131110    0.401024
      6          8           0       -2.303461   -0.888526   -0.277097
      7          8           0       -1.087824   -0.202238    1.793164
      8          8           0       -1.476518    1.385223    0.025688
      9          9           0        1.389190    1.360543    0.448328
     10          9           0        1.757355   -0.549584    1.387491
     11          9           0        2.579297   -0.130407   -0.557629
     12          1           0       -1.949162    1.474206   -0.814677
 ---------------------------------------------------------------------

 SCF Done:  E(RM062X) =  -1199.94056042     A.U. after    1 cycles

 Isotropic polarizability for W=    0.000000       53.50 Bohr**3.
 End of Minotr F.D. properties file   721 does not exist.

                      1                      2                      3
                      A                      A                      A
 Frequencies --     48.2771                70.3380               132.7428
 Red. masses --     13.4031                15.8891                16.5784
 Frc consts  --      0.0184                 0.0463                 0.1721
 IR Inten    --      2.0890                 0.5568                 0.4621

                      4                      5                      6
                      A                      A                      A
 Frequencies --    194.6561               223.0057               241.2483
 Red. masses --      6.1535                16.9058                14.9949
 Frc consts  --      0.1374                 0.4954                 0.5142
 IR Inten    --     12.8800                 1.2499                 6.6034

                      7                      8                      9
                      A                      A                      A
 Frequencies --    286.7439               315.5004               323.7758
 Red. masses --     11.4752                17.0284                 6.4648
 Frc consts  --      0.5559                 0.9987                 0.3993
 IR Inten    --      0.7445                 0.1399                 8.7802

                     10                     11                     12
                      A                      A                      A
 Frequencies --    357.9409               380.6605               446.6014
 Red. masses --      2.1159                 4.8903                14.2762
 Frc consts  --      0.1597                 0.4175                 1.6777
 IR Inten    --     45.7800                15.7368                11.0242

                     13                     14                     15
                      A                      A                      A
 Frequencies --    475.1026               529.1715               542.8977
 Red. masses --      4.0968                14.4866                17.8952
 Frc consts  --      0.5448                 2.3901                 3.1076
 IR Inten    --     32.9354                17.3333                20.6807

                     16                     17                     18
                      A                      A                      A
 Frequencies --    609.7722               630.3280               664.2842
 Red. masses --     17.2649                19.3009                17.3762
 Frc consts  --      3.7822                 4.5181                 4.5177
 IR Inten    --      5.3157               109.9869                46.8949

                     19                     20                     21
                      A                      A                      A
 Frequencies --    781.4972               904.8975              1040.4536
 Red. masses --     17.3585                16.7334                13.6418
 Frc consts  --      6.2462                 8.0730                 8.7010
 IR Inten    --     11.4827               186.4974                95.7301

                     22                     23                     24
                      A                      A                      A
 Frequencies --   1144.3600              1196.5865              1256.0166
 Red. masses --      1.1848                13.9855                13.8902
 Frc consts  --      0.9141                11.7982                12.9106
 IR Inten    --     87.7216               127.4700                41.7063

                     25                     26                     27
                      A                      A                      A
 Frequencies --   1275.3025              1286.9576              1311.6345
 Red. masses --     14.7951                13.4896                13.3196
 Frc consts  --     14.1774                13.1637                13.5011
 IR Inten    --    196.1250               199.4591               360.9184

                     28                     29                     30
                      A                      A                      A
 Frequencies --   1390.6616              1501.7090              3804.9790
 Red. masses --     12.6956                15.3163                 1.0657
 Frc consts  --     14.4660                20.3506                 9.0901
 IR Inten    --     81.8021               279.3351               190.5995

 - Thermochemistry -
 -------------------
 Temperature   298.150 Kelvin.  Pressure   1.00000 Atm.
 Atom     1 has atomic number  6 and mass  12.00000

 Molecular mass:   199.95666 amu.
 Principal axes and moments of inertia in atomic units:
                           1         2         3
     Eigenvalues --  1131.830382108.688902245.76498
           X            0.99855   0.03307  -0.04247
           Y            0.01564   0.57670   0.81681
           Z           -0.05150   0.81629  -0.57534
 This molecule is an asymmetric top.
 Rotational symmetry number  1.
 Warning -- assumption of classical behavior for rotation
           may cause significant error
 Rotational temperatures (Kelvin)      0.07653     0.04107     0.03857
 Rotational constants (GHZ):           1.59453     0.85586     0.80362
 Zero-point vibrational energy     139772.3 (Joules/Mol)
                                   33.40638 (Kcal/Mol)
 Warning -- explicit consideration of  16 degrees of freedom as
           vibrations may cause significant error
 Vibrational temperatures:     69.46   101.20   190.99   280.07   320.86
          (Kelvin)            347.10   412.56   453.93   465.84   515.00
                              547.69   642.56   683.57   761.36   781.11
                              877.33   906.90   955.76  1124.40  1301.95
                             1496.98  1646.48  1721.62  1807.13  1834.88
                             1851.64  1887.15  2000.85  2160.62  5474.52

 Zero-point correction=                           0.053236 (Hartree/Particle)
 Thermal correction to Energy=                    0.063480
 Thermal correction to Enthalpy=                  0.064424
 Thermal correction to Gibbs Free Energy=         0.016663
 Sum of electronic and zero-point Energies=          -1199.887324
 Sum of electronic and thermal Energies=             -1199.877081
 Sum of electronic and thermal Enthalpies=           -1199.876136
 Sum of electronic and thermal Free Energies=        -1199.923898

                     E (Thermal)             CV                S
                      KCal/Mol        Cal/Mol-Kelvin    Cal/Mol-Kelvin
 Total                   39.834             35.966            100.522
 Electronic               0.000              0.000              0.000
 Translational            0.889              2.981             41.783
 Rotational               0.889              2.981             30.062
 Vibrational             38.057             30.005             28.677
 Vibration     1          0.595              1.978              4.887
 Vibration     2          0.598              1.968              4.144
 Vibration     3          0.613              1.921              2.906
 Vibration     4          0.635              1.847              2.183
 Vibration     5          0.649              1.806              1.935
 Vibration     6          0.658              1.777              1.794
 Vibration     7          0.684              1.698              1.493
 Vibration     8          0.703              1.644              1.333
 Vibration     9          0.708              1.628              1.291
 Vibration    10          0.733              1.559              1.131
 Vibration    11          0.750              1.511              1.037
 Vibration    12          0.806              1.368              0.806
 Vibration    13          0.832              1.305              0.723
 Vibration    14          0.884              1.185              0.589
 Vibration    15          0.898              1.155              0.559
 Vibration    16          0.969              1.011              0.433

                           ! Non-Optimized Parameters !
 Normal termination of Gaussian 16 at Fri May 23 23:32:27 2025.
