 Gaussian 16, Revision C.01,
 Gaussian 16:  ES64L-G16RevC.01  3-Jul-2019

 ----------------------------------------------------------------------
 #P M062X/Def2TZVPP Symm(None) scf(xqc) pop(None) opt(NoFreeze,TS,CalcA
 ll,NoEigentest,MaxCycle=999)
 ----------------------------------------------------------------------

 ------------------------------
 Gaussian input prepared by ASE
 ------------------------------
 Symbolic Z-matrix:
 Charge =  0 Multiplicity = 1

 SCF Done:  E(RM062X) =  -1199.77472130     A.U. after   17 cycles
 SCF Done:  E(RM062X) =  -1199.84991594     A.U. after   14 cycles
 SCF Done:  E(RM062X) =  -1199.90228514     A.U. after   13 cycles
 SCF Done:  E(RM062X) =  -1199.92877299     A.U. after   12 cycles
 SCF Done:  E(RM062X) =  -1199.93556098     A.U. after   12 cycles
 SCF Done:  E(RM062X) =  -1199.93644739     A.U. after   11 cycles
 SCF Done:  E(RM062X) =  -1199.93649508     A.U. after   10 cycles
 SCF Done:  E(RM062X) =  -1199.93649518     A.U. after    6 cycles

 Isotropic polarizability for W=    0.000000       53.50 Bohr**3.
 End of Minotr F.D. properties file   721 does not exist.

 Optimization completed.
    -- Stationary point found.

                          Input orientation:
 ---------------------------------------------------------------------
 Center     Atomic      Atomic             Coordinates (Angstroms)
 Number     Number       Type             X           Y           Z
 ---------------------------------------------------------------------
      1          6           0       -0.638928   -1.341131    0.192771
      2          6           0        0.076966    0.036982   -0.054433
      3          9           0       -0.018918    0.370005   -1.345126
      4          9           0       -0.502670    0.983188    0.677096
      5         16           0        1.870822    0.003192    0.364661
      6          8           0        1.976899   -0.120275    1.767061
      7          8           0        2.502673   -0.867511   -0.561204
      8          8           0        2.223092    1.490230   -0.006436
      9          9           0       -1.169569   -1.780556   -0.935306
     10          9           0        0.222093   -2.245366    0.637363
     11          9           0       -1.597670   -1.193154    1.089394
     12          1           0        2.503152    1.543989   -0.931648
 ---------------------------------------------------------------------

 ******    1 imaginary frequencies (negative Signs) ******

                      1                      2                      3
                      A                      A                      A
 Frequencies --    -52.3837                78.4678               145.8081
 Red. masses --     17.7509                11.7664                12.5594
 Frc consts  --      0.0287                 0.0427                 0.1573
 IR Inten    --      0.1428                 2.3646                 2.3885

                      4                      5                      6
                      A                      A                      A
 Frequencies --    188.2334               247.0328               285.9748
 Red. masses --     11.1269                 8.2050                13.1732
 Frc consts  --      0.2323                 0.2950                 0.6347
 IR Inten    --      5.9371                 9.3151                 2.1949

                      7                      8                      9
                      A                      A                      A
 Frequencies --    291.4485               317.2033               341.3294
 Red. masses --     16.3665                 4.1937                16.4913
 Frc consts  --      0.8191                 0.2486                 1.1320
 IR Inten    --      1.8223                21.0426                 0.2595

                     10                     11                     12
                      A                      A                      A
 Frequencies --    359.4206               382.3454               440.8881
 Red. masses --      1.9732                16.3537                 4.8139
 Frc consts  --      0.1502                 1.4086                 0.5513
 IR Inten    --     51.8911                 0.6710                19.5898

                     13                     14                     15
                      A                      A                      A
 Frequencies --    499.3549               507.8689               546.5424
 Red. masses --      7.2948                15.0318                17.8365
 Frc consts  --      1.0717                 2.2844                 3.1391
 IR Inten    --     19.8082                23.6879                27.1656

                     16                     17                     18
                      A                      A                      A
 Frequencies --    604.0533               631.0249               667.0937
 Red. masses --     17.1510                19.1719                17.6920
 Frc consts  --      3.6871                 4.4979                 4.6388
 IR Inten    --      3.3447               106.6032                46.6404

                     19                     20                     21
                      A                      A                      A
 Frequencies --    781.8924               896.2537              1030.8688
 Red. masses --     17.2970                16.5047                14.0906
 Frc consts  --      6.2304                 7.8112                 8.8224
 IR Inten    --     21.4996               230.5146                18.4512

                     22                     23                     24
                      A                      A                      A
 Frequencies --   1140.6140              1197.7826              1248.5168
 Red. masses --      1.1835                13.6255                16.2448
 Frc consts  --      0.9072                11.5175                14.9194
 IR Inten    --     91.0226               283.7919                 9.3223

                     25                     26                     27
                      A                      A                      A
 Frequencies --   1263.0165              1300.6868              1306.3953
 Red. masses --     13.2366                13.1300                13.6727
 Frc consts  --     12.4407                13.0876                13.7485
 IR Inten    --    142.8903               220.6967               289.2805

                     28                     29                     30
                      A                      A                      A
 Frequencies --   1356.3895              1501.0341              3808.4465
 Red. masses --     12.8907                15.3485                 1.0657
 Frc consts  --     13.9732                20.3750                 9.1067
 IR Inten    --     85.0470               289.3839               190.0384

 - Thermochemistry -
 -------------------
 Temperature   298.150 Kelvin.  Pressure   1.00000 Atm.
 Atom     1 has atomic number  6 and mass  12.00000

 Molecular mass:   199.95666 amu.
 Principal axes and moments of inertia in atomic units:
                           1         2         3
     Eigenvalues --  1124.754622157.154372286.10612
           X            0.86568  -0.45147  -0.21628
           Y            0.49882   0.81431   0.29677
           Z            0.04213  -0.36479   0.93014
 This molecule is an asymmetric top.
 Rotational symmetry number  1.
 Warning -- assumption of classical behavior for rotation
           may cause significant error
 Rotational temperatures (Kelvin)      0.07701     0.04015     0.03789
 Rotational constants (GHZ):           1.60456     0.83663     0.78944
    1 imaginary frequencies ignored.
 Zero-point vibrational energy     139759.6 (Joules/Mol)
                                   33.40336 (Kcal/Mol)
 Warning -- explicit consideration of  15 degrees of freedom as
           vibrations may cause significant error
 Vibrational temperatures:    112.90   209.79   270.83   355.43   411.45
          (Kelvin)            419.33   456.38   491.10   517.13   550.11
                              634.34   718.46   730.71   786.35   869.10
                              907.90   959.80  1124.97  1289.51  1483.19
                             1641.09  1723.34  1796.34  1817.20  1871.40
                             1879.61  1951.54  2159.65  5479.51

 Zero-point correction=                           0.053232 (Hartree/Particle)
 Thermal correction to Energy=                    0.062485
 Thermal correction to Enthalpy=                  0.063429
 Thermal correction to Gibbs Free Energy=         0.018417
 Sum of electronic and zero-point Energies=          -1199.883264
 Sum of electronic and thermal Energies=             -1199.874010
 Sum of electronic and thermal Enthalpies=           -1199.873066
 Sum of electronic and thermal Free Energies=        -1199.918078

                     E (Thermal)             CV                S
                      KCal/Mol        Cal/Mol-Kelvin    Cal/Mol-Kelvin
 Total                   39.210             33.855             94.737
 Electronic               0.000              0.000              0.000
 Translational            0.889              2.981             41.783
 Rotational               0.889              2.981             30.096
 Vibrational             37.432             27.894             22.857
 Vibration     1          0.600              1.964              3.929
 Vibration     2          0.617              1.907              2.726
 Vibration     3          0.633              1.856              2.245
 Vibration     4          0.661              1.768              1.752
 Vibration     5          0.684              1.700              1.498
 Vibration     6          0.687              1.690              1.466
 Vibration     7          0.704              1.641              1.324
 Vibration     8          0.721              1.593              1.206
 Vibration     9          0.734              1.556              1.125
 Vibration    10          0.752              1.508              1.030
 Vibration    11          0.801              1.381              0.824
 Vibration    12          0.855              1.251              0.660
 Vibration    13          0.863              1.233              0.639
 Vibration    14          0.902              1.147              0.551
 Vibration    15          0.963              1.023              0.443

 Normal termination of Gaussian 16 at Sat May 24 03:19:44 2025.
