 Gaussian 16, Revision C.01,
 Gaussian 16:  ES64L-G16RevC.01  3-Jul-2019

 ----------------------------------------------------------------------
 #P mp2/6-31G Symm(None) scf(xqc) pop(None) guess(Read,Mix) geom(AllChe
 ck,NoKeepConstants) irc(RCFC,forward,MaxPoints=100,StepSize=2)
 ----------------------------------------------------------------------

 Structure from the checkpoint file:  "2003846667223680600001_R_Addition_MultipleBond_5_8_12_IRC_F.chk"
 ------------------------------
 Gaussian input prepared by ASE
 ------------------------------
 Charge =  0 Multiplicity = 1

 SCF Done:  E(RHF) =  -1194.90680887     A.U. after   19 cycles
 E2 =    -0.1294569206D+01 EUMP2 =    -0.11962013780784D+04
 SCF Done:  E(RHF) =  -1194.90693676     A.U. after   13 cycles
 E2 =    -0.1294512050D+01 EUMP2 =    -0.11962014488135D+04
 SCF Done:  E(RHF) =  -1194.90714648     A.U. after   13 cycles
 E2 =    -0.1294419940D+01 EUMP2 =    -0.11962015664174D+04
 SCF Done:  E(RHF) =  -1194.90743704     A.U. after   13 cycles
 E2 =    -0.1294293462D+01 EUMP2 =    -0.11962017305047D+04
 SCF Done:  E(RHF) =  -1194.90780715     A.U. after   13 cycles
 E2 =    -0.1294133380D+01 EUMP2 =    -0.11962019405328D+04
 SCF Done:  E(RHF) =  -1194.90825516     A.U. after   13 cycles
 E2 =    -0.1293940643D+01 EUMP2 =    -0.11962021958027D+04
 SCF Done:  E(RHF) =  -1194.90877908     A.U. after   13 cycles
 E2 =    -0.1293716376D+01 EUMP2 =    -0.11962024954546D+04
 SCF Done:  E(RHF) =  -1194.90937660     A.U. after   14 cycles
 E2 =    -0.1293461864D+01 EUMP2 =    -0.11962028384613D+04
 SCF Done:  E(RHF) =  -1194.91004509     A.U. after   14 cycles
 E2 =    -0.1293178537D+01 EUMP2 =    -0.11962032236228D+04
 SCF Done:  E(RHF) =  -1194.91078161     A.U. after   14 cycles
 E2 =    -0.1292867948D+01 EUMP2 =    -0.11962036495603D+04
 E2 =    -0.1292531760D+01 EUMP2 =    -0.11962041147125D+04
 E2 =    -0.1292171729D+01 EUMP2 =    -0.11962046173317D+04
 E2 =    -0.1291789684D+01 EUMP2 =    -0.11962051554821D+04
 E2 =    -0.1291387515D+01 EUMP2 =    -0.11962057270394D+04
 E2 =    -0.1290967160D+01 EUMP2 =    -0.11962063296938D+04
 E2 =    -0.1290530590D+01 EUMP2 =    -0.11962069609517D+04
 E2 =    -0.1290079812D+01 EUMP2 =    -0.11962076181535D+04
 E2 =    -0.1289616848D+01 EUMP2 =    -0.11962082984702D+04
 E2 =    -0.1289143742D+01 EUMP2 =    -0.11962089989274D+04
 E2 =    -0.1288662554D+01 EUMP2 =    -0.11962097164216D+04
 E2 =    -0.1283448836D+01 EUMP2 =    -0.11962383021792D+04
 E2 =    -0.1283570706D+01 EUMP2 =    -0.11962385639345D+04
 E2 =    -0.1283691759D+01 EUMP2 =    -0.11962388220567D+04
 E2 =    -0.1283811894D+01 EUMP2 =    -0.11962390766053D+04
 E2 =    -0.1283931016D+01 EUMP2 =    -0.11962393276388D+04
 E2 =    -0.1284049035D+01 EUMP2 =    -0.11962395752150D+04
 E2 =    -0.1284165868D+01 EUMP2 =    -0.11962398193912D+04
 E2 =    -0.1284281439D+01 EUMP2 =    -0.11962400602238D+04
 E2 =    -0.1284395675D+01 EUMP2 =    -0.11962402977682D+04
 E2 =    -0.1284508510D+01 EUMP2 =    -0.11962405320792D+04
 SCF Done:  E(RHF) =  -1194.95614333     A.U. after   12 cycles
 E2 =    -0.1284619884D+01 EUMP2 =    -0.11962407632104D+04
 SCF Done:  E(RHF) =  -1194.95626148     A.U. after   12 cycles
 E2 =    -0.1284729739D+01 EUMP2 =    -0.11962409912148D+04
 SCF Done:  E(RHF) =  -1194.95637812     A.U. after   12 cycles
 E2 =    -0.1284838026D+01 EUMP2 =    -0.11962412161441D+04
 SCF Done:  E(RHF) =  -1194.95649335     A.U. after   12 cycles
 E2 =    -0.1284944698D+01 EUMP2 =    -0.11962414380491D+04
 SCF Done:  E(RHF) =  -1194.95660727     A.U. after   11 cycles
 E2 =    -0.1285049703D+01 EUMP2 =    -0.11962416569685D+04
 SCF Done:  E(RHF) =  -1194.95671995     A.U. after   11 cycles
 E2 =    -0.1285153024D+01 EUMP2 =    -0.11962418729728D+04
 SCF Done:  E(RHF) =  -1194.95683148     A.U. after   11 cycles
 E2 =    -0.1285254618D+01 EUMP2 =    -0.11962420860982D+04
 SCF Done:  E(RHF) =  -1194.95694194     A.U. after   11 cycles
 E2 =    -0.1285354456D+01 EUMP2 =    -0.11962422963912D+04
 SCF Done:  E(RHF) =  -1194.95705138     A.U. after   11 cycles
 E2 =    -0.1285452513D+01 EUMP2 =    -0.11962425038968D+04
 SCF Done:  E(RHF) =  -1194.95715989     A.U. after   11 cycles
 E2 =    -0.1285548769D+01 EUMP2 =    -0.11962427086588D+04

                          Input orientation:
 ---------------------------------------------------------------------
 Center     Atomic      Atomic             Coordinates (Angstroms)
 Number     Number       Type             X           Y           Z
 ---------------------------------------------------------------------
      1          6           0       -1.215504   -0.976780    0.116716
      2          6           0       -0.610772    0.420778   -0.043421
      3          9           0       -0.892531    0.947828   -1.293809
      4          9           0       -1.044638    1.276935    0.964561
      5         16           0        1.402251    0.500796    0.095877
      6          8           0        1.855837   -0.401560    1.325212
      7          8           0        2.033307    0.070872   -1.533622
      8          8           0        1.793016    2.057496   -0.090023
      9          9           0       -0.511276   -1.859077   -0.700525
     10          9           0       -1.116246   -1.395758    1.434006
     11          9           0       -2.553145   -0.966465   -0.265567
     12          1           0        2.407060    0.963842   -1.791919
 ---------------------------------------------------------------------

 Normal termination of Gaussian 16 at Sat May 24 03:47:40 2025.
