 Gaussian 16, Revision C.01,
 Gaussian 16:  ES64L-G16RevC.01  3-Jul-2019

 ----------------------------------------------------------------------
 #P M062X/Def2TZVPP Symm(None) scf(xqc) pop(None) geom(AllCheck,NoKeepC
 onstants) guess(Read) irc(RCFC,reverse,MaxPoints=100,StepSize=2)
 ----------------------------------------------------------------------

 Structure from the checkpoint file:  "2003846667223680600001_r13_insertion_RSR_9_1_2_5_IRC_R.chk"
 ------------------------------
 Gaussian input prepared by ASE
 ------------------------------
 Charge =  0 Multiplicity = 1

 SCF Done:  E(RM062X) =  -1199.77244665     A.U. after   10 cycles
 SCF Done:  E(RM062X) =  -1199.77253181     A.U. after   11 cycles
 SCF Done:  E(RM062X) =  -1199.77267027     A.U. after   11 cycles
 SCF Done:  E(RM062X) =  -1199.77285912     A.U. after   11 cycles
 SCF Done:  E(RM062X) =  -1199.77309553     A.U. after   11 cycles
 SCF Done:  E(RM062X) =  -1199.77337670     A.U. after   11 cycles
 SCF Done:  E(RM062X) =  -1199.77369989     A.U. after   11 cycles
 SCF Done:  E(RM062X) =  -1199.77406248     A.U. after   11 cycles
 SCF Done:  E(RM062X) =  -1199.77446189     A.U. after   11 cycles
 SCF Done:  E(RM062X) =  -1199.77489568     A.U. after   11 cycles
 SCF Done:  E(RM062X) =  -1199.84011004     A.U. after    9 cycles
 SCF Done:  E(RM062X) =  -1199.84090273     A.U. after    9 cycles
 SCF Done:  E(RM062X) =  -1199.84169109     A.U. after    9 cycles
 SCF Done:  E(RM062X) =  -1199.84247501     A.U. after    9 cycles
 SCF Done:  E(RM062X) =  -1199.84325437     A.U. after    9 cycles
 SCF Done:  E(RM062X) =  -1199.84402907     A.U. after    9 cycles
 SCF Done:  E(RM062X) =  -1199.84479897     A.U. after    9 cycles
 SCF Done:  E(RM062X) =  -1199.84556398     A.U. after    9 cycles
 SCF Done:  E(RM062X) =  -1199.84632396     A.U. after    9 cycles
 SCF Done:  E(RM062X) =  -1199.84707880     A.U. after    9 cycles

                          Input orientation:
 ---------------------------------------------------------------------
 Center     Atomic      Atomic             Coordinates (Angstroms)
 Number     Number       Type             X           Y           Z
 ---------------------------------------------------------------------
      1          6           0        0.613935   -1.562629   -0.535789
      2          6           0        1.366426   -0.487144   -0.504705
      3          9           0        2.027374   -0.126624    0.584301
      4          9           0        1.443256    0.365643   -1.496283
      5         16           0       -1.013273    1.097001    0.509697
      6          8           0       -1.685804    1.539554   -0.643485
      7          8           0       -1.233903    1.228748    1.900376
      8          8           0        0.412941    1.725607    0.311680
      9          9           0       -1.243015   -0.457269    0.376397
     10          9           0       -0.164129   -1.857467   -1.542559
     11          9           0        0.454403   -2.350717    0.495565
     12          1           0        0.885236    1.725456    1.157926
 ---------------------------------------------------------------------

 Normal termination of Gaussian 16 at Sat May 24 07:18:13 2025.
