 Gaussian 16, Revision C.01,
 Gaussian 16:  ES64L-G16RevC.01  3-Jul-2019

 ----------------------------------------------------------------------
 #P M062X/Def2TZVPP Symm(None) scf(xqc) pop(None) geom(AllCheck,NoKeepC
 onstants) guess(Read) irc(RCFC,reverse,MaxPoints=100,StepSize=2)
 ----------------------------------------------------------------------

 Structure from the checkpoint file:  "2003846667223680600001_r12_insertion_R_2_5_8_IRC_R.chk"
 ------------------------------
 Gaussian input prepared by ASE
 ------------------------------
 Charge =  0 Multiplicity = 1

 SCF Done:  E(RM062X) =  -1199.93650038     A.U. after    7 cycles

                          Input orientation:
 ---------------------------------------------------------------------
 Center     Atomic      Atomic             Coordinates (Angstroms)
 Number     Number       Type             X           Y           Z
 ---------------------------------------------------------------------
      1          6           0       -1.142856   -0.967111    0.012680
      2          6           0       -0.443522    0.414184   -0.262944
      3          9           0       -0.486535    0.688599   -1.570172
      4          9           0       -1.074558    1.378621    0.398936
      5         16           0        1.329395    0.437651    0.237964
      6          8           0        1.373428    0.381860    1.647964
      7          8           0        2.019548   -0.461963   -0.615778
      8          8           0        1.670136    1.912914   -0.187117
      9          9           0       -1.601388   -1.472587   -1.119382
     10          9           0       -0.288794   -1.828348    0.547047
     11          9           0       -2.152303   -0.798958    0.848058
     12          1           0        1.992386    1.929304   -1.099925
 ---------------------------------------------------------------------

 Normal termination of Gaussian 16 at Sat May 24 04:02:10 2025.
