 Gaussian 16, Revision C.01,
 Gaussian 16:  ES64L-G16RevC.01  3-Jul-2019

 ----------------------------------------------------------------------
 #P M062X/Def2TZVPP Symm(None) scf(xqc) pop(None) opt(NoFreeze,TS,CalcA
 ll,NoEigentest,MaxCycle=999)
 ----------------------------------------------------------------------

 ------------------------------
 Gaussian input prepared by ASE
 ------------------------------
 Symbolic Z-matrix:
 Charge =  0 Multiplicity = 1

 SCF Done:  E(RM062X) =  -1198.52276528     A.U. after   19 cycles
 SCF Done:  E(RM062X) =  -1198.83399636     A.U. after   17 cycles
 SCF Done:  E(RM062X) =  -1199.24944378     A.U. after   16 cycles
 SCF Done:  E(RM062X) =  -1199.51119626     A.U. after   16 cycles
 SCF Done:  E(RM062X) =  -1199.66349131     A.U. after   17 cycles
 SCF Done:  E(RM062X) =  -1199.74318495     A.U. after   17 cycles
 SCF Done:  E(RM062X) =  -1199.78049420     A.U. after   16 cycles
 SCF Done:  E(RM062X) =  -1199.79549962     A.U. after   18 cycles
 SCF Done:  E(RM062X) =  -1199.80135762     A.U. after   16 cycles
 SCF Done:  E(RM062X) =  -1199.80369555     A.U. after   15 cycles
 SCF Done:  E(RM062X) =  -1199.80555848     A.U. after   15 cycles
 SCF Done:  E(RM062X) =  -1199.81009905     A.U. after   14 cycles
 SCF Done:  E(RM062X) =  -1199.81891333     A.U. after   18 cycles
 SCF Done:  E(RM062X) =  -1199.82241998     A.U. after   16 cycles
 SCF Done:  E(RM062X) =  -1199.83763539     A.U. after   16 cycles
 SCF Done:  E(RM062X) =  -1199.84976185     A.U. after   15 cycles
 SCF Done:  E(RM062X) =  -1199.85808658     A.U. after   15 cycles
 SCF Done:  E(RM062X) =  -1199.85960689     A.U. after   15 cycles
 SCF Done:  E(RM062X) =  -1199.85988812     A.U. after   12 cycles
 SCF Done:  E(RM062X) =  -1199.85989059     A.U. after    9 cycles

 Isotropic polarizability for W=    0.000000       59.09 Bohr**3.
 End of Minotr F.D. properties file   721 does not exist.

 Optimization completed.
    -- Stationary point found.

                          Input orientation:
 ---------------------------------------------------------------------
 Center     Atomic      Atomic             Coordinates (Angstroms)
 Number     Number       Type             X           Y           Z
 ---------------------------------------------------------------------
      1          6           0        2.534369   -1.771488   -1.730048
      2          6           0        1.900943   -0.386389   -1.993594
      3          9           0        2.562263    0.178844   -3.013915
      4          9           0        0.633535   -0.585668   -2.396208
      5         16           0        0.623300    0.405645    0.646761
      6          8           0        1.954145    0.394001   -0.899872
      7          8           0       -0.464649   -0.421746    0.294401
      8          8           0        0.497608    1.775895    0.957174
      9          9           0        3.832180   -1.646593   -1.488635
     10          9           0        1.961316   -2.306240   -0.644125
     11          9           0        2.359638   -2.590267   -2.749826
     12          1           0        1.955263   -0.128285    0.450169
 ---------------------------------------------------------------------

 ******    1 imaginary frequencies (negative Signs) ******

                      1                      2                      3
                      A                      A                      A
 Frequencies --  -1661.9006                29.3522                51.7559
 Red. masses --      1.0855                14.3599                17.9897
 Frc consts  --      1.7664                 0.0073                 0.0284
 IR Inten    --   1077.0351                 1.3263                 0.6332

                      4                      5                      6
                      A                      A                      A
 Frequencies --     70.2836               107.0629               186.4558
 Red. masses --     14.9556                17.3532                14.7280
 Frc consts  --      0.0435                 0.1172                 0.3017
 IR Inten    --      2.0783                 1.0835                22.1672

                      7                      8                      9
                      A                      A                      A
 Frequencies --    214.4633               232.6592               253.9496
 Red. masses --     16.9032                17.3645                16.4677
 Frc consts  --      0.4581                 0.5538                 0.6257
 IR Inten    --      8.4198                23.5750                 2.5656

                     10                     11                     12
                      A                      A                      A
 Frequencies --    360.7606               390.3491               402.4972
 Red. masses --     17.0487                15.3480                18.1017
 Frc consts  --      1.3073                 1.3779                 1.7278
 IR Inten    --      1.1237                 3.8404                 2.2677

                     13                     14                     15
                      A                      A                      A
 Frequencies --    464.3267               530.9758               544.3307
 Red. masses --     14.1295                15.8988                17.5407
 Frc consts  --      1.7948                 2.6410                 3.0621
 IR Inten    --    232.5523                58.8595                11.1220

                     16                     17                     18
                      A                      A                      A
 Frequencies --    565.6036               635.5530               650.7538
 Red. masses --     16.1386                17.4698                15.4864
 Frc consts  --      3.0419                 4.1576                 3.8640
 IR Inten    --     56.8358                 0.8631                89.1073

                     19                     20                     21
                      A                      A                      A
 Frequencies --    744.9021               851.0643              1030.0416
 Red. masses --     15.5964                16.1132                 1.2161
 Frc consts  --      5.0989                 6.8763                 0.7602
 IR Inten    --     56.5869                68.8505                19.8866

                     22                     23                     24
                      A                      A                      A
 Frequencies --   1141.9999              1206.6444              1229.1746
 Red. masses --      5.4566                11.9970                12.1424
 Frc consts  --      4.1928                10.2915                10.8089
 IR Inten    --    294.7145               280.4312               256.2554

                     25                     26                     27
                      A                      A                      A
 Frequencies --   1257.0510              1280.0986              1307.8150
 Red. masses --     12.8663                13.6303                13.2360
 Frc consts  --     11.9787                13.1596                13.3383
 IR Inten    --    441.7214               132.0129               367.4643

                     28                     29                     30
                      A                      A                      A
 Frequencies --   1438.7565              1518.9001              2068.7514
 Red. masses --     11.8322                20.0383                 1.0601
 Frc consts  --     14.4308                27.2376                 2.6731
 IR Inten    --      2.0438               222.7610               129.0752

 - Thermochemistry -
 -------------------
 Temperature   298.150 Kelvin.  Pressure   1.00000 Atm.
 Atom     1 has atomic number  6 and mass  12.00000

 Molecular mass:   199.95666 amu.
 Principal axes and moments of inertia in atomic units:
                           1         2         3
     Eigenvalues --  1035.169072850.684593026.63588
           X           -0.52619   0.10233   0.84419
           Y            0.54752   0.80035   0.24426
           Z            0.65065  -0.59073   0.47717
 This molecule is an asymmetric top.
 Rotational symmetry number  1.
 Warning -- assumption of classical behavior for rotation
           may cause significant error
 Rotational temperatures (Kelvin)      0.08367     0.03038     0.02862
 Rotational constants (GHZ):           1.74343     0.63309     0.59629
    1 imaginary frequencies ignored.
 Zero-point vibrational energy     124210.3 (Joules/Mol)
                                   29.68696 (Kcal/Mol)
 Warning -- explicit consideration of  15 degrees of freedom as
           vibrations may cause significant error
 Vibrational temperatures:     42.23    74.47   101.12   154.04   268.27
          (Kelvin)            308.56   334.74   365.38   519.05   561.63
                              579.10   668.06   763.96   783.17   813.78
                              914.42   936.29  1071.75  1224.49  1482.00
                             1643.08  1736.09  1768.51  1808.62  1841.78
                             1881.65  2070.05  2185.36  2976.47

 Zero-point correction=                           0.047309 (Hartree/Particle)
 Thermal correction to Energy=                    0.057851
 Thermal correction to Enthalpy=                  0.058795
 Thermal correction to Gibbs Free Energy=         0.008779
 Sum of electronic and zero-point Energies=          -1199.812581
 Sum of electronic and thermal Energies=             -1199.802040
 Sum of electronic and thermal Enthalpies=           -1199.801096
 Sum of electronic and thermal Free Energies=        -1199.851111

                     E (Thermal)             CV                S
                      KCal/Mol        Cal/Mol-Kelvin    Cal/Mol-Kelvin
 Total                   36.302             35.159            105.267
 Electronic               0.000              0.000              0.000
 Translational            0.889              2.981             41.783
 Rotational               0.889              2.981             30.569
 Vibrational             34.524             29.197             32.914
 Vibration     1          0.593              1.984              5.873
 Vibration     2          0.596              1.977              4.749
 Vibration     3          0.598              1.968              4.145
 Vibration     4          0.606              1.944              3.321
 Vibration     5          0.632              1.858              2.263
 Vibration     6          0.644              1.819              2.005
 Vibration     7          0.653              1.791              1.858
 Vibration     8          0.665              1.756              1.703
 Vibration     9          0.735              1.553              1.119
 Vibration    10          0.758              1.491              0.999
 Vibration    11          0.768              1.465              0.954
 Vibration    12          0.822              1.329              0.754
 Vibration    13          0.886              1.181              0.585
 Vibration    14          0.899              1.152              0.556
 Vibration    15          0.921              1.106              0.513

 Normal termination of Gaussian 16 at Sat May 24 05:15:52 2025.
