 Gaussian 16, Revision C.01,
 Gaussian 16:  ES64L-G16RevC.01  3-Jul-2019

 ----------------------------------------------------------------------
 #P mp2/6-31G Symm(None) scf(xqc) pop(None) guess(Mix,Always) freq opt(
 CalcFC)
 ----------------------------------------------------------------------

 ------------------------------
 Gaussian input prepared by ASE
 ------------------------------
 Symbolic Z-matrix:
 Charge =  0 Multiplicity = 1

 SCF Done:  E(RHF) =  -1194.95716004     A.U. after   19 cycles
 E2 =    -0.1285548628D+01 EUMP2 =    -0.11962427086662D+04
 E2 =    -0.1285548628D+01 EUMP2 =    -0.11962427086662D+04
 SCF Done:  E(RHF) =  -1194.96681484     A.U. after   19 cycles
 E2 =    -0.1286537301D+01 EUMP2 =    -0.11962533521374D+04
 SCF Done:  E(RHF) =  -1194.96671198     A.U. after   19 cycles
 E2 =    -0.1288124154D+01 EUMP2 =    -0.11962548361386D+04
 SCF Done:  E(RHF) =  -1194.96720314     A.U. after   19 cycles
 E2 =    -0.1288075702D+01 EUMP2 =    -0.11962552788378D+04
 SCF Done:  E(RHF) =  -1194.96723599     A.U. after   19 cycles
 E2 =    -0.1288255307D+01 EUMP2 =    -0.11962554912930D+04
 SCF Done:  E(RHF) =  -1194.96714299     A.U. after   19 cycles
 E2 =    -0.1288440354D+01 EUMP2 =    -0.11962555833469D+04
 SCF Done:  E(RHF) =  -1194.96702443     A.U. after   19 cycles
 E2 =    -0.1288627137D+01 EUMP2 =    -0.11962556515705D+04
 SCF Done:  E(RHF) =  -1194.96691226     A.U. after   19 cycles
 E2 =    -0.1288785688D+01 EUMP2 =    -0.11962556979531D+04
 SCF Done:  E(RHF) =  -1194.96678347     A.U. after   19 cycles
 E2 =    -0.1288925839D+01 EUMP2 =    -0.11962557093079D+04
 Optimization completed.
    -- Stationary point found.
 Normal termination of Gaussian 16 at Sat May 24 03:49:24 2025.

 -------------------------------------------------------------------
 #P Geom=AllCheck Guess=TCheck SCRF=Check GenChk RMP2(FC)/6-31G Freq
 -------------------------------------------------------------------

 Structure from the checkpoint file:  "2003846667223680600001_R_Addition_MultipleBond_5_8_12_IRC_F_prod.chk"
 ------------------------------
 Gaussian input prepared by ASE
 ------------------------------
 Charge =  0 Multiplicity = 1

                          Input orientation:
 ---------------------------------------------------------------------
 Center     Atomic      Atomic             Coordinates (Angstroms)
 Number     Number       Type             X           Y           Z
 ---------------------------------------------------------------------
      1          6           0       -1.131094   -0.962544    0.023131
      2          6           0       -0.602771    0.476599   -0.044440
      3          9           0       -0.930264    1.071504   -1.253485
      4          9           0       -1.127510    1.216474    1.018204
      5         16           0        1.376287    0.706717    0.159339
      6          8           0        1.925613   -0.219643    1.329643
      7          8           0        1.701467   -0.037045   -1.463495
      8          8           0        1.692282    2.269166    0.120632
      9          9           0       -0.547024   -1.751526   -0.956278
     10          9           0       -0.854209   -1.505480    1.271637
     11          9           0       -2.512004   -0.950991   -0.170213
     12          1           0        2.556584    0.325677   -1.817189
 ---------------------------------------------------------------------

 SCF Done:  E(RHF) =  -1194.96678347     A.U. after    1 cycles
 E2 =    -0.1288925837D+01 EUMP2 =    -0.11962557093056D+04
 E2 =    -0.1288925837D+01 EUMP2 =    -0.11962557093056D+04
 ******    1 imaginary frequencies (negative Signs) ******

                      1                      2                      3
                      A                      A                      A
 Frequencies --     -7.3367                63.0191               106.9288
 Red. masses --     10.2006                11.3843                 1.8826
 Frc consts  --      0.0003                 0.0266                 0.0127
 IR Inten    --      4.6875                 5.8505                88.9924

                      4                      5                      6
                      A                      A                      A
 Frequencies --    123.4086               169.3494               176.6797
 Red. masses --      5.9783                 5.7865                11.2708
 Frc consts  --      0.0536                 0.0978                 0.2073
 IR Inten    --      7.9491                19.9653                 1.8327

                      7                      8                      9
                      A                      A                      A
 Frequencies --    208.0010               219.3806               271.0984
 Red. masses --     12.3889                10.4474                 7.7220
 Frc consts  --      0.3158                 0.2962                 0.3344
 IR Inten    --      8.2226                 2.0228                11.1330

                     10                     11                     12
                      A                      A                      A
 Frequencies --    280.6734               335.2979               353.8861
 Red. masses --     13.5835                14.9672                13.7488
 Frc consts  --      0.6305                 0.9914                 1.0145
 IR Inten    --      8.7667                20.0415                23.3177

                     13                     14                     15
                      A                      A                      A
 Frequencies --    368.5837               414.0506               452.1035
 Red. masses --     12.2332                16.7281                15.4853
 Frc consts  --      0.9792                 1.6897                 1.8649
 IR Inten    --     13.0486                 3.1737               105.5059

                     16                     17                     18
                      A                      A                      A
 Frequencies --    495.9709               558.0021               583.3065
 Red. masses --     16.6202                17.5338                17.0823
 Frc consts  --      2.4088                 3.2166                 3.4244
 IR Inten    --     15.1501                 1.2230                16.9609

                     19                     20                     21
                      A                      A                      A
 Frequencies --    624.4690               690.2266               905.7606
 Red. masses --     18.2908                17.0240                12.4946
 Frc consts  --      4.2025                 4.7785                 6.0395
 IR Inten    --    161.7476                24.8066               130.2678

                     22                     23                     24
                      A                      A                      A
 Frequencies --    975.8030              1088.4876              1092.9358
 Red. masses --     10.0338                13.6738                 1.7616
 Frc consts  --      5.6291                 9.5452                 1.2398
 IR Inten    --     51.3530               101.9178               143.8615

                     25                     26                     27
                      A                      A                      A
 Frequencies --   1135.8886              1190.3822              1199.8756
 Red. masses --      3.6284                 8.7105                13.3251
 Frc consts  --      2.7582                 7.2722                11.3030
 IR Inten    --    149.6481                80.8361               202.9108

                     28                     29                     30
                      A                      A                      A
 Frequencies --   1223.8846              1312.3502              3510.7864
 Red. masses --     12.8331                12.4095                 1.0662
 Frc consts  --     11.3257                12.5923                 7.7428
 IR Inten    --    175.2375               150.3112                96.3524

 - Thermochemistry -
 -------------------
 Temperature   298.150 Kelvin.  Pressure   1.00000 Atm.
 Atom     1 has atomic number  6 and mass  12.00000

 Molecular mass:   199.95666 amu.
 Principal axes and moments of inertia in atomic units:
                           1         2         3
     Eigenvalues --  1285.697852388.688822497.13487
           X            0.85002  -0.52362  -0.05729
           Y            0.52664   0.84700   0.07248
           Z            0.01057  -0.09178   0.99572
 This molecule is an asymmetric top.
 Rotational symmetry number  1.
 Warning -- assumption of classical behavior for rotation
           may cause significant error
 Rotational temperatures (Kelvin)      0.06737     0.03626     0.03469
 Rotational constants (GHZ):           1.40371     0.75554     0.72272
    1 imaginary frequencies ignored.
 Zero-point vibrational energy     120407.7 (Joules/Mol)
                                   28.77812 (Kcal/Mol)
 Warning -- explicit consideration of  17 degrees of freedom as
           vibrations may cause significant error
 Vibrational temperatures:     90.67   153.85   177.56   243.66   254.20
          (Kelvin)            299.27   315.64   390.05   403.83   482.42
                              509.16   530.31   595.73   650.48   713.59
                              802.84   839.25   898.47   993.08  1303.19
                             1403.96  1566.09  1572.49  1634.29  1712.69
                             1726.35  1760.90  1888.18  5051.24

 Zero-point correction=                           0.045861 (Hartree/Particle)
 Thermal correction to Energy=                    0.056809
 Thermal correction to Enthalpy=                  0.057753
 Thermal correction to Gibbs Free Energy=         0.008802
 Sum of electronic and zero-point Energies=          -1196.209848
 Sum of electronic and thermal Energies=             -1196.198900
 Sum of electronic and thermal Enthalpies=           -1196.197956
 Sum of electronic and thermal Free Energies=        -1196.246907

                     E (Thermal)             CV                S
                      KCal/Mol        Cal/Mol-Kelvin    Cal/Mol-Kelvin
 Total                   35.648             37.887            103.026
 Electronic               0.000              0.000              0.000
 Translational            0.889              2.981             41.783
 Rotational               0.889              2.981             30.418
 Vibrational             33.871             31.926             30.825
 Vibration     1          0.597              1.972              4.360
 Vibration     2          0.606              1.944              3.324
 Vibration     3          0.610              1.929              3.046
 Vibration     4          0.625              1.880              2.443
 Vibration     5          0.628              1.871              2.363
 Vibration     6          0.641              1.828              2.061
 Vibration     7          0.647              1.812              1.964
 Vibration     8          0.675              1.726              1.589
 Vibration     9          0.680              1.709              1.530
 Vibration    10          0.716              1.605              1.234
 Vibration    11          0.730              1.567              1.149
 Vibration    12          0.741              1.537              1.086
 Vibration    13          0.778              1.440              0.912
 Vibration    14          0.811              1.356              0.789
 Vibration    15          0.852              1.259              0.668
 Vibration    16          0.914              1.122              0.528
 Vibration    17          0.940              1.067              0.479

                           ! Non-Optimized Parameters !
 Normal termination of Gaussian 16 at Sat May 24 03:50:10 2025.
