 Gaussian 16, Revision C.01,
 Gaussian 16:  ES64L-G16RevC.01  3-Jul-2019

 -----------------------------------------------------------------
 #P M062X/Def2TZVPP Symm(None) scf(xqc) pop(None) freq opt(CalcFC)
 -----------------------------------------------------------------

 ------------------------------
 Gaussian input prepared by ASE
 ------------------------------
 Symbolic Z-matrix:
 Charge =  0 Multiplicity = 1

 SCF Done:  E(RM062X) =  -1199.88993161     A.U. after   13 cycles
 SCF Done:  E(RM062X) =  -1199.91507457     A.U. after   13 cycles
 SCF Done:  E(RM062X) =  -1199.93724895     A.U. after   13 cycles
 SCF Done:  E(RM062X) =  -1199.93974887     A.U. after   11 cycles
 SCF Done:  E(RM062X) =  -1199.94036495     A.U. after   11 cycles
 SCF Done:  E(RM062X) =  -1199.94059250     A.U. after   11 cycles
 SCF Done:  E(RM062X) =  -1199.94063870     A.U. after   10 cycles
 SCF Done:  E(RM062X) =  -1199.94065573     A.U. after    8 cycles
 SCF Done:  E(RM062X) =  -1199.94066160     A.U. after    8 cycles
 SCF Done:  E(RM062X) =  -1199.94066679     A.U. after    9 cycles
 SCF Done:  E(RM062X) =  -1199.94067178     A.U. after    9 cycles
 SCF Done:  E(RM062X) =  -1199.94067559     A.U. after   10 cycles
 SCF Done:  E(RM062X) =  -1199.94067719     A.U. after    8 cycles
 Optimization completed.
    -- Stationary point found.
 Normal termination of Gaussian 16 at Sat May 24 05:59:04 2025.

 ---------------------------------------------------------------------
 #P Geom=AllCheck Guess=TCheck SCRF=Check GenChk RM062X/def2TZVPP Freq
 ---------------------------------------------------------------------

 Structure from the checkpoint file:  "2003846667223680600001_r12_insertion_R_6_5_8_IRC_F_prod.chk"
 ------------------------------
 Gaussian input prepared by ASE
 ------------------------------
 Charge =  0 Multiplicity = 1

                          Input orientation:
 ---------------------------------------------------------------------
 Center     Atomic      Atomic             Coordinates (Angstroms)
 Number     Number       Type             X           Y           Z
 ---------------------------------------------------------------------
      1          6           0       -1.025883   -1.021317    0.080508
      2          6           0       -0.399166    0.386640   -0.039443
      3          9           0       -0.765976    0.916971   -1.212701
      4          9           0       -0.856869    1.148685    0.950032
      5         16           0        1.442967    0.388408    0.024134
      6          8           0        1.829121    0.183264    1.365629
      7          8           0        1.895054   -0.410187   -1.058311
      8          8           0        1.685789    1.905281   -0.308995
      9          9           0       -0.718802   -1.756773   -0.973096
     10          9           0       -0.591960   -1.620239    1.177414
     11          9           0       -2.343524   -0.894261    0.147826
     12          1           0        1.750021    2.032582   -1.266697
 ---------------------------------------------------------------------

 SCF Done:  E(RM062X) =  -1199.94067719     A.U. after    1 cycles

 Isotropic polarizability for W=    0.000000       53.47 Bohr**3.
 End of Minotr F.D. properties file   721 does not exist.

                      1                      2                      3
                      A                      A                      A
 Frequencies --     23.2107                69.6824               128.2460
 Red. masses --     14.5276                14.0014                14.8516
 Frc consts  --      0.0046                 0.0401                 0.1439
 IR Inten    --      1.2793                 0.8982                 1.2954

                      4                      5                      6
                      A                      A                      A
 Frequencies --    194.9314               220.8093               238.1752
 Red. masses --      9.7663                16.7912                 8.1903
 Frc consts  --      0.2186                 0.4824                 0.2737
 IR Inten    --      7.2772                 1.6077                11.0806

                      7                      8                      9
                      A                      A                      A
 Frequencies --    283.6514               317.8357               323.4041
 Red. masses --     13.9331                 5.2386                17.8454
 Frc consts  --      0.6605                 0.3118                 1.0997
 IR Inten    --      0.4258                15.3181                 0.0440

                     10                     11                     12
                      A                      A                      A
 Frequencies --    366.6541               376.1053               446.3735
 Red. masses --      1.8224                14.7940                 4.6259
 Frc consts  --      0.1443                 1.2330                 0.5431
 IR Inten    --     54.4665                 1.5806                23.3307

                     13                     14                     15
                      A                      A                      A
 Frequencies --    499.8909               507.1464               543.8651
 Red. masses --      7.3218                14.8668                17.7453
 Frc consts  --      1.0780                 2.2529                 3.0925
 IR Inten    --      8.5506                32.0538                25.4037

                     16                     17                     18
                      A                      A                      A
 Frequencies --    609.1399               630.9732               663.9596
 Red. masses --     17.1590                19.4110                17.6243
 Frc consts  --      3.7513                 4.5532                 4.5777
 IR Inten    --      3.6580               110.7128                47.2809

                     19                     20                     21
                      A                      A                      A
 Frequencies --    781.7180               896.5913              1040.8012
 Red. masses --     17.3529                16.5924                14.0293
 Frc consts  --      6.2477                 7.8587                 8.9541
 IR Inten    --     19.8431               228.3518                28.7630

                     22                     23                     24
                      A                      A                      A
 Frequencies --   1140.4787              1200.7670              1256.5628
 Red. masses --      1.1811                13.6310                15.8568
 Frc consts  --      0.9051                11.5796                14.7514
 IR Inten    --     92.6010               246.3452                17.6470

                     25                     26                     27
                      A                      A                      A
 Frequencies --   1263.4245              1302.2071              1305.9475
 Red. masses --     13.3735                13.8447                13.1995
 Frc consts  --     12.5775                13.8323                13.2635
 IR Inten    --     89.6352               322.1681               234.1245

                     28                     29                     30
                      A                      A                      A
 Frequencies --   1389.6107              1504.8757              3808.6329
 Red. masses --     12.6828                15.4986                 1.0657
 Frc consts  --     14.4296                20.6797                 9.1076
 IR Inten    --     91.6318               296.1179               188.3464

 - Thermochemistry -
 -------------------
 Temperature   298.150 Kelvin.  Pressure   1.00000 Atm.
 Atom     1 has atomic number  6 and mass  12.00000

 Molecular mass:   199.95666 amu.
 Principal axes and moments of inertia in atomic units:
                           1         2         3
     Eigenvalues --  1118.661472148.609672267.00726
           X            0.85713  -0.51412  -0.03185
           Y            0.51410   0.84999   0.11499
           Z           -0.03205  -0.11493   0.99286
 This molecule is an asymmetric top.
 Rotational symmetry number  1.
 Warning -- assumption of classical behavior for rotation
           may cause significant error
 Rotational temperatures (Kelvin)      0.07743     0.04031     0.03821
 Rotational constants (GHZ):           1.61330     0.83996     0.79609
 Zero-point vibrational energy     139578.3 (Joules/Mol)
                                   33.36002 (Kcal/Mol)
 Warning -- explicit consideration of  16 degrees of freedom as
           vibrations may cause significant error
 Vibrational temperatures:     33.40   100.26   184.52   280.46   317.70
          (Kelvin)            342.68   408.11   457.29   465.31   527.53
                              541.13   642.23   719.23   729.67   782.50
                              876.42   907.83   955.29  1124.72  1289.99
                             1497.48  1640.89  1727.64  1807.91  1817.79
                             1873.59  1878.97  1999.34  2165.18  5479.77

 Zero-point correction=                           0.053163 (Hartree/Particle)
 Thermal correction to Energy=                    0.063471
 Thermal correction to Enthalpy=                  0.064416
 Thermal correction to Gibbs Free Energy=         0.015908
 Sum of electronic and zero-point Energies=          -1199.887515
 Sum of electronic and thermal Energies=             -1199.877206
 Sum of electronic and thermal Enthalpies=           -1199.876262
 Sum of electronic and thermal Free Energies=        -1199.924769

                     E (Thermal)             CV                S
                      KCal/Mol        Cal/Mol-Kelvin    Cal/Mol-Kelvin
 Total                   39.829             35.984            102.092
 Electronic               0.000              0.000              0.000
 Translational            0.889              2.981             41.783
 Rotational               0.889              2.981             30.078
 Vibrational             38.051             30.022             30.231
 Vibration     1          0.593              1.985              6.339
 Vibration     2          0.598              1.969              4.162
 Vibration     3          0.611              1.925              2.972
 Vibration     4          0.636              1.847              2.180
 Vibration     5          0.648              1.809              1.952
 Vibration     6          0.656              1.782              1.816
 Vibration     7          0.682              1.704              1.512
 Vibration     8          0.704              1.640              1.321
 Vibration     9          0.708              1.629              1.293
 Vibration    10          0.740              1.541              1.094
 Vibration    11          0.747              1.521              1.055
 Vibration    12          0.806              1.369              0.807
 Vibration    13          0.855              1.250              0.658
 Vibration    14          0.862              1.234              0.640
 Vibration    15          0.899              1.153              0.557
 Vibration    16          0.968              1.012              0.434

                           ! Non-Optimized Parameters !
 Normal termination of Gaussian 16 at Sat May 24 06:03:52 2025.
