 Gaussian 16, Revision C.01,
 Gaussian 16:  ES64L-G16RevC.01  3-Jul-2019

 -----------------------------------------------------------------
 #P M062X/Def2TZVPP Symm(None) scf(xqc) pop(None) freq opt(CalcFC)
 -----------------------------------------------------------------

 ------------------------------
 Gaussian input prepared by ASE
 ------------------------------
 Symbolic Z-matrix:
 Charge =  0 Multiplicity = 1

 SCF Done:  E(RM062X) =  -1199.93454469     A.U. after   13 cycles
 SCF Done:  E(RM062X) =  -1199.93998306     A.U. after   12 cycles
 SCF Done:  E(RM062X) =  -1199.94051053     A.U. after   11 cycles
 SCF Done:  E(RM062X) =  -1199.94055756     A.U. after   10 cycles
 SCF Done:  E(RM062X) =  -1199.94055902     A.U. after    8 cycles
 Optimization completed.
    -- Stationary point found.
 Normal termination of Gaussian 16 at Sat May 24 02:42:00 2025.

 ---------------------------------------------------------------------
 #P Geom=AllCheck Guess=TCheck SCRF=Check GenChk RM062X/def2TZVPP Freq
 ---------------------------------------------------------------------

 Structure from the checkpoint file:  "2003846667223680600001_intra_H_migration_5_12_IRC_F_prod.chk"
 ------------------------------
 Gaussian input prepared by ASE
 ------------------------------
 Charge =  0 Multiplicity = 1

                          Input orientation:
 ---------------------------------------------------------------------
 Center     Atomic      Atomic             Coordinates (Angstroms)
 Number     Number       Type             X           Y           Z
 ---------------------------------------------------------------------
      1          6           0       -1.075379   -0.943874    0.060557
      2          6           0       -0.470753    0.475847   -0.036861
      3          9           0       -0.787062    0.997237   -1.227930
      4          9           0       -0.992926    1.228776    0.927485
      5         16           0        1.363984    0.551633    0.136075
      6          8           0        1.743095   -0.379444    1.127890
      7          8           0        1.803353   -0.032621   -1.254003
      8          8           0        1.687240    1.931988    0.185231
      9          9           0       -0.469412   -1.759032   -0.790348
     10          9           0       -0.955990   -1.416390    1.286119
     11          9           0       -2.362782   -0.877831   -0.252016
     12          1           0        1.876465    0.677342   -1.908324
 ---------------------------------------------------------------------

 SCF Done:  E(RM062X) =  -1199.94055902     A.U. after    1 cycles

 Isotropic polarizability for W=    0.000000       53.52 Bohr**3.
 End of Minotr F.D. properties file   721 does not exist.

                      1                      2                      3
                      A                      A                      A
 Frequencies --     45.8963                71.1712               135.4388
 Red. masses --     13.3713                15.9867                16.4101
 Frc consts  --      0.0166                 0.0477                 0.1774
 IR Inten    --      2.1027                 0.5247                 0.5493

                      4                      5                      6
                      A                      A                      A
 Frequencies --    192.2330               223.4026               241.6500
 Red. masses --      5.8412                17.5318                15.1565
 Frc consts  --      0.1272                 0.5155                 0.5215
 IR Inten    --     13.6549                 1.2576                 6.6601

                      7                      8                      9
                      A                      A                      A
 Frequencies --    286.5476               315.2251               323.8913
 Red. masses --     11.1237                16.9566                 6.5941
 Frc consts  --      0.5381                 0.9927                 0.4076
 IR Inten    --      0.8109                 0.2116                 8.4905

                     10                     11                     12
                      A                      A                      A
 Frequencies --    357.7394               379.7045               446.6527
 Red. masses --      2.0412                 5.2801                14.0194
 Frc consts  --      0.1539                 0.4485                 1.6479
 IR Inten    --     47.6802                14.0702                11.3867

                     13                     14                     15
                      A                      A                      A
 Frequencies --    473.1683               528.8266               542.9134
 Red. masses --      4.2462                14.4610                17.8994
 Frc consts  --      0.5601                 2.3827                 3.1085
 IR Inten    --     31.6297                17.4312                20.7890

                     16                     17                     18
                      A                      A                      A
 Frequencies --    609.6932               629.9882               664.2150
 Red. masses --     17.2530                19.3260                17.3605
 Frc consts  --      3.7787                 4.5192                 4.5126
 IR Inten    --      5.3548               109.8928                46.7586

                     19                     20                     21
                      A                      A                      A
 Frequencies --    781.4331               903.9426              1040.3594
 Red. masses --     17.3529                16.7790                13.5938
 Frc consts  --      6.2432                 8.0779                 8.6688
 IR Inten    --     11.4919               186.2663                96.9282

                     22                     23                     24
                      A                      A                      A
 Frequencies --   1141.3515              1196.5524              1255.5561
 Red. masses --      1.1863                13.9992                13.9651
 Frc consts  --      0.9105                11.8091                12.9708
 IR Inten    --     87.0836               126.8546                41.0858

                     25                     26                     27
                      A                      A                      A
 Frequencies --   1274.7715              1286.9005              1310.9319
 Red. masses --     14.8249                13.4205                13.3243
 Frc consts  --     14.1941                13.0951                13.4914
 IR Inten    --    194.7900               198.5035               361.4248

                     28                     29                     30
                      A                      A                      A
 Frequencies --   1390.4587              1500.3519              3807.4035
 Red. masses --     12.6911                15.3183                 1.0657
 Frc consts  --     14.4566                20.3164                 9.1018
 IR Inten    --     82.7044               279.7185               190.8081

 - Thermochemistry -
 -------------------
 Temperature   298.150 Kelvin.  Pressure   1.00000 Atm.
 Atom     1 has atomic number  6 and mass  12.00000

 Molecular mass:   199.95666 amu.
 Principal axes and moments of inertia in atomic units:
                           1         2         3
     Eigenvalues --  1131.727372109.259542245.94837
           X            0.86786  -0.49524  -0.03945
           Y            0.49657   0.86223   0.09988
           Z           -0.01545  -0.10627   0.99422
 This molecule is an asymmetric top.
 Rotational symmetry number  1.
 Warning -- assumption of classical behavior for rotation
           may cause significant error
 Rotational temperatures (Kelvin)      0.07653     0.04106     0.03856
 Rotational constants (GHZ):           1.59468     0.85563     0.80355
 Zero-point vibrational energy     139714.1 (Joules/Mol)
                                   33.39247 (Kcal/Mol)
 Warning -- explicit consideration of  16 degrees of freedom as
           vibrations may cause significant error
 Vibrational temperatures:     66.03   102.40   194.87   276.58   321.43
          (Kelvin)            347.68   412.28   453.54   466.01   514.71
                              546.31   642.63   680.78   760.86   781.13
                              877.21   906.41   955.66  1124.31  1300.57
                             1496.85  1642.15  1721.57  1806.47  1834.11
                             1851.56  1886.14  2000.56  2158.67  5478.00

 Zero-point correction=                           0.053214 (Hartree/Particle)
 Thermal correction to Energy=                    0.063463
 Thermal correction to Enthalpy=                  0.064407
 Thermal correction to Gibbs Free Energy=         0.016612
 Sum of electronic and zero-point Energies=          -1199.887345
 Sum of electronic and thermal Energies=             -1199.877096
 Sum of electronic and thermal Enthalpies=           -1199.876152
 Sum of electronic and thermal Free Energies=        -1199.923947

                     E (Thermal)             CV                S
                      KCal/Mol        Cal/Mol-Kelvin    Cal/Mol-Kelvin
 Total                   39.824             35.980            100.592
 Electronic               0.000              0.000              0.000
 Translational            0.889              2.981             41.783
 Rotational               0.889              2.981             30.062
 Vibrational             38.046             30.019             28.747
 Vibration     1          0.595              1.979              4.987
 Vibration     2          0.598              1.968              4.121
 Vibration     3          0.613              1.918              2.867
 Vibration     4          0.634              1.851              2.206
 Vibration     5          0.649              1.805              1.931
 Vibration     6          0.658              1.777              1.791
 Vibration     7          0.684              1.699              1.494
 Vibration     8          0.703              1.645              1.335
 Vibration     9          0.708              1.628              1.290
 Vibration    10          0.733              1.559              1.132
 Vibration    11          0.750              1.513              1.040
 Vibration    12          0.806              1.368              0.806
 Vibration    13          0.830              1.310              0.729
 Vibration    14          0.884              1.186              0.590
 Vibration    15          0.898              1.155              0.559
 Vibration    16          0.969              1.011              0.433

 Optimization completed.
    -- Stationary point found.
 Normal termination of Gaussian 16 at Sat May 24 02:46:32 2025.
