 Gaussian 16, Revision C.01,
 Gaussian 16:  ES64L-G16RevC.01  3-Jul-2019

 ----------------------------------------------------------------------
 #P M062X/Def2TZVPP Symm(None) scf(xqc) pop(None) geom(AllCheck,NoKeepC
 onstants) guess(Read) irc(RCFC,forward,MaxPoints=100,StepSize=2)
 ----------------------------------------------------------------------

 Structure from the checkpoint file:  "2003846667223680600001_r12_insertion_R_5_2_3_IRC_F.chk"
 ------------------------------
 Gaussian input prepared by ASE
 ------------------------------
 Charge =  0 Multiplicity = 1

 SCF Done:  E(RM062X) =  -1199.79183558     A.U. after    9 cycles
 SCF Done:  E(RM062X) =  -1199.79188372     A.U. after   10 cycles
 SCF Done:  E(RM062X) =  -1199.79196521     A.U. after   10 cycles
 SCF Done:  E(RM062X) =  -1199.79208104     A.U. after   10 cycles
 SCF Done:  E(RM062X) =  -1199.79223216     A.U. after   10 cycles
 SCF Done:  E(RM062X) =  -1199.79241948     A.U. after   10 cycles
 SCF Done:  E(RM062X) =  -1199.79264386     A.U. after   10 cycles
 SCF Done:  E(RM062X) =  -1199.79290611     A.U. after   10 cycles
 SCF Done:  E(RM062X) =  -1199.79320697     A.U. after   10 cycles
 SCF Done:  E(RM062X) =  -1199.79354715     A.U. after   10 cycles
 SCF Done:  E(RM062X) =  -1199.89569958     A.U. after    9 cycles
 SCF Done:  E(RM062X) =  -1199.89671897     A.U. after    9 cycles
 SCF Done:  E(RM062X) =  -1199.89771924     A.U. after    9 cycles
 SCF Done:  E(RM062X) =  -1199.89870048     A.U. after    9 cycles
 SCF Done:  E(RM062X) =  -1199.89966278     A.U. after    9 cycles
 SCF Done:  E(RM062X) =  -1199.90060623     A.U. after    9 cycles
 SCF Done:  E(RM062X) =  -1199.90153094     A.U. after    9 cycles
 SCF Done:  E(RM062X) =  -1199.90243701     A.U. after    9 cycles
 SCF Done:  E(RM062X) =  -1199.90332453     A.U. after    9 cycles
 SCF Done:  E(RM062X) =  -1199.90419361     A.U. after    9 cycles

                          Input orientation:
 ---------------------------------------------------------------------
 Center     Atomic      Atomic             Coordinates (Angstroms)
 Number     Number       Type             X           Y           Z
 ---------------------------------------------------------------------
      1          6           0       -1.285787   -1.034181   -0.024567
      2          6           0       -0.383087    0.246874    0.249719
      3          9           0       -0.717923    1.086625   -0.744480
      4          9           0       -0.822716    0.702487    1.422895
      5         16           0        1.513565    0.530699    0.018692
      6          8           0        1.826675    1.332406    1.151640
      7          8           0        2.054698   -0.705380   -0.403584
      8          8           0        1.768251    1.474553   -1.225494
      9          9           0       -0.841864   -1.691363   -1.073512
     10          9           0       -1.478391   -1.886101    0.971752
     11          9           0       -2.478553   -0.504157   -0.297785
     12          1           0        1.695486    2.400814   -0.953548
 ---------------------------------------------------------------------

 Normal termination of Gaussian 16 at Sat May 24 05:17:08 2025.
