 Gaussian 16, Revision C.01,
 Gaussian 16:  ES64L-G16RevC.01  3-Jul-2019

 ----------------------------------------------------------------------
 #P M062X/Def2TZVPP Symm(None) scf(xqc) pop(None) opt(CalcAll,Cartesian
 )
 ----------------------------------------------------------------------

 ------------------------------
 Gaussian input prepared by ASE
 ------------------------------
 Symbolic Z-matrix:
 Charge =  0 Multiplicity = 1

 SCF Done:  E(RM062X) =  -1199.89415709     A.U. after   13 cycles
 SCF Done:  E(RM062X) =  -1199.89418033     A.U. after   11 cycles
 SCF Done:  E(RM062X) =  -1199.89421863     A.U. after   11 cycles
 SCF Done:  E(RM062X) =  -1199.89425452     A.U. after   10 cycles
 SCF Done:  E(RM062X) =  -1199.89428229     A.U. after   11 cycles
 SCF Done:  E(RM062X) =  -1199.89434139     A.U. after   10 cycles
 SCF Done:  E(RM062X) =  -1199.89427202     A.U. after   12 cycles
 SCF Done:  E(RM062X) =  -1199.89438750     A.U. after   11 cycles
 SCF Done:  E(RM062X) =  -1199.89435502     A.U. after   11 cycles
 SCF Done:  E(RM062X) =  -1199.89334619     A.U. after   13 cycles
 SCF Done:  E(RM062X) =  -1199.89269283     A.U. after   12 cycles
 SCF Done:  E(RM062X) =  -1199.89247381     A.U. after   12 cycles
 SCF Done:  E(RM062X) =  -1199.89438919     A.U. after    8 cycles
 SCF Done:  E(RM062X) =  -1199.89441535     A.U. after   11 cycles
 SCF Done:  E(RM062X) =  -1199.89446165     A.U. after   10 cycles
 SCF Done:  E(RM062X) =  -1199.89446054     A.U. after   10 cycles
 SCF Done:  E(RM062X) =  -1199.89446896     A.U. after   11 cycles
 SCF Done:  E(RM062X) =  -1199.89447064     A.U. after   10 cycles
 SCF Done:  E(RM062X) =  -1199.89447127     A.U. after    8 cycles
 SCF Done:  E(RM062X) =  -1199.89447130     A.U. after    7 cycles

 Isotropic polarizability for W=    0.000000       53.46 Bohr**3.
 End of Minotr F.D. properties file   721 does not exist.

 Optimization completed.
    -- Stationary point found.

                          Input orientation:
 ---------------------------------------------------------------------
 Center     Atomic      Atomic             Coordinates (Angstroms)
 Number     Number       Type             X           Y           Z
 ---------------------------------------------------------------------
      1          6           0        0.920147   -1.864770   -0.590107
      2          6           0        1.653798   -0.777113   -0.690381
      3          9           0        1.658673    0.171088    0.232879
      4          9           0        2.450322   -0.510666   -1.693682
      5         16           0       -1.370458    1.358175    0.878901
      6          8           0       -2.596824    2.038471    0.825446
      7          8           0       -0.958892    0.557238    1.964115
      8          8           0       -0.250774    2.366597    0.489330
      9          9           0       -1.307097    0.440785   -0.376690
     10          9           0        0.913797   -2.805920   -1.499129
     11          9           0        0.129652   -2.108543    0.420610
     12          1           0        0.621105    1.974815    0.651830
 ---------------------------------------------------------------------

                      1                      2                      3
                      A                      A                      A
 Frequencies --     26.4268                29.7657                42.7765
 Red. masses --     13.8060                16.0462                17.0931
 Frc consts  --      0.0057                 0.0084                 0.0184
 IR Inten    --      1.5889                 0.6629                 0.1169

                      4                      5                      6
                      A                      A                      A
 Frequencies --     48.3520                57.5399                94.2188
 Red. masses --     13.7809                14.7929                13.0608
 Frc consts  --      0.0190                 0.0289                 0.0683
 IR Inten    --      3.7835                 0.8596                 4.5413

                      7                      8                      9
                      A                      A                      A
 Frequencies --    209.4913               213.6813               325.4308
 Red. masses --     18.2271                18.4929                 1.6510
 Frc consts  --      0.4713                 0.4975                 0.1030
 IR Inten    --      5.2181                 0.1017                74.6295

                     10                     11                     12
                      A                      A                      A
 Frequencies --    395.8385               402.6342               435.0891
 Red. masses --     11.5357                18.4942                13.1293
 Frc consts  --      1.0650                 1.7665                 1.4644
 IR Inten    --      2.2315                 0.1653                 5.4455

                     13                     14                     15
                      A                      A                      A
 Frequencies --    442.6703               529.6579               556.1076
 Red. masses --      2.4977                 7.7203                17.7397
 Frc consts  --      0.2884                 1.2761                 3.2323
 IR Inten    --     61.3985                28.0791                32.4447

                     16                     17                     18
                      A                      A                      A
 Frequencies --    561.4008               565.2075               566.5344
 Red. masses --     17.3504                17.3337                15.5945
 Frc consts  --      3.2218                 3.2626                 2.9490
 IR Inten    --      2.6402                 0.9764                39.2923

                     19                     20                     21
                      A                      A                      A
 Frequencies --    594.2195               822.9053               852.8991
 Red. masses --     12.3116                18.5506                20.0329
 Frc consts  --      2.5613                 7.4013                 8.5860
 IR Inten    --      0.5551                 0.4520               201.2071

                     22                     23                     24
                      A                      A                      A
 Frequencies --    946.1464              1176.9944              1228.1512
 Red. masses --     16.9821                 1.2015                12.8003
 Frc consts  --      8.9569                 0.9807                11.3756
 IR Inten    --    183.4332               134.7285               325.4471

                     25                     26                     27
                      A                      A                      A
 Frequencies --   1291.7578              1381.1167              1412.1414
 Red. masses --     17.6728                12.9491                13.2598
 Frc consts  --     17.3747                14.5530                15.5791
 IR Inten    --    217.6168               263.1613               197.6929

                     28                     29                     30
                      A                      A                      A
 Frequencies --   1532.1124              1973.9069              3783.2222
 Red. masses --     14.8161                12.1978                 1.0653
 Frc consts  --     20.4910                28.0018                 8.9833
 IR Inten    --    323.9281                 1.1607               239.6368

 - Thermochemistry -
 -------------------
 Temperature   298.150 Kelvin.  Pressure   1.00000 Atm.
 Atom     1 has atomic number  6 and mass  12.00000

 Molecular mass:   199.95666 amu.
 Principal axes and moments of inertia in atomic units:
                           1         2         3
     Eigenvalues --  1023.779573467.974343888.06784
           X           -0.61719   0.66433   0.42160
           Y            0.67975   0.72005  -0.13951
           Z            0.39625  -0.20048   0.89599
 This molecule is an asymmetric top.
 Rotational symmetry number  1.
 Warning -- assumption of classical behavior for rotation
           may cause significant error
 Rotational temperatures (Kelvin)      0.08460     0.02498     0.02228
 Rotational constants (GHZ):           1.76282     0.52040     0.46417
 Zero-point vibrational energy     134570.3 (Joules/Mol)
                                   32.16307 (Kcal/Mol)
 Warning -- explicit consideration of  19 degrees of freedom as
           vibrations may cause significant error
 Vibrational temperatures:     38.02    42.83    61.55    69.57    82.79
          (Kelvin)            135.56   301.41   307.44   468.22   569.52
                              579.30   626.00   636.90   762.06   800.11
                              807.73   813.21   815.12   854.95  1183.98
                             1227.13  1361.29  1693.43  1767.04  1858.55
                             1987.12  2031.76  2204.37  2840.01  5443.21

 Zero-point correction=                           0.051255 (Hartree/Particle)
 Thermal correction to Energy=                    0.063087
 Thermal correction to Enthalpy=                  0.064031
 Thermal correction to Gibbs Free Energy=         0.009142
 Sum of electronic and zero-point Energies=          -1199.843216
 Sum of electronic and thermal Energies=             -1199.831384
 Sum of electronic and thermal Enthalpies=           -1199.830440
 Sum of electronic and thermal Free Energies=        -1199.885329

                     E (Thermal)             CV                S
                      KCal/Mol        Cal/Mol-Kelvin    Cal/Mol-Kelvin
 Total                   39.588             37.957            115.523
 Electronic               0.000              0.000              0.000
 Translational            0.889              2.981             41.783
 Rotational               0.889              2.981             31.002
 Vibrational             37.810             31.995             42.738
 Vibration     1          0.593              1.985              6.081
 Vibration     2          0.594              1.984              5.845
 Vibration     3          0.595              1.980              5.126
 Vibration     4          0.595              1.978              4.884
 Vibration     5          0.596              1.974              4.540
 Vibration     6          0.603              1.953              3.571
 Vibration     7          0.642              1.826              2.048
 Vibration     8          0.644              1.820              2.012
 Vibration     9          0.710              1.625              1.283
 Vibration    10          0.763              1.479              0.978
 Vibration    11          0.768              1.464              0.953
 Vibration    12          0.796              1.394              0.842
 Vibration    13          0.802              1.377              0.818
 Vibration    14          0.885              1.184              0.588
 Vibration    15          0.912              1.126              0.532
 Vibration    16          0.917              1.115              0.521
 Vibration    17          0.921              1.107              0.514
 Vibration    18          0.922              1.104              0.511
 Vibration    19          0.952              1.044              0.460

 Normal termination of Gaussian 16 at Sat May 24 09:37:10 2025.
