 Gaussian 16, Revision C.01,
 Gaussian 16:  ES64L-G16RevC.01  3-Jul-2019

 ----------------------------------------------------------------------
 #P M062X/Def2TZVPP Symm(None) scf(xqc) pop(None) geom(AllCheck,NoKeepC
 onstants) guess(Read) irc(RCFC,forward,MaxPoints=100,StepSize=2)
 ----------------------------------------------------------------------

 Structure from the checkpoint file:  "2003846667223680600001_r13_insertion_RSR_9_1_2_5_IRC_F.chk"
 ------------------------------
 Gaussian input prepared by ASE
 ------------------------------
 Charge =  0 Multiplicity = 1

 SCF Done:  E(RM062X) =  -1199.77244765     A.U. after   10 cycles
 SCF Done:  E(RM062X) =  -1199.77253954     A.U. after   11 cycles
 SCF Done:  E(RM062X) =  -1199.77269618     A.U. after   11 cycles
 SCF Done:  E(RM062X) =  -1199.77292036     A.U. after   11 cycles
 SCF Done:  E(RM062X) =  -1199.77321486     A.U. after   11 cycles
 SCF Done:  E(RM062X) =  -1199.77358230     A.U. after   11 cycles
 SCF Done:  E(RM062X) =  -1199.77402509     A.U. after   11 cycles
 SCF Done:  E(RM062X) =  -1199.77454527     A.U. after   11 cycles
 SCF Done:  E(RM062X) =  -1199.77514442     A.U. after   11 cycles
 SCF Done:  E(RM062X) =  -1199.77582350     A.U. after   11 cycles
 SCF Done:  E(RM062X) =  -1199.91235285     A.U. after    9 cycles
 SCF Done:  E(RM062X) =  -1199.91322141     A.U. after    9 cycles
 SCF Done:  E(RM062X) =  -1199.91406760     A.U. after    9 cycles
 SCF Done:  E(RM062X) =  -1199.91489207     A.U. after    9 cycles
 SCF Done:  E(RM062X) =  -1199.91569545     A.U. after    9 cycles
 SCF Done:  E(RM062X) =  -1199.91647833     A.U. after    9 cycles
 SCF Done:  E(RM062X) =  -1199.91724126     A.U. after    9 cycles
 SCF Done:  E(RM062X) =  -1199.91798473     A.U. after    9 cycles
 SCF Done:  E(RM062X) =  -1199.91870918     A.U. after    9 cycles
 SCF Done:  E(RM062X) =  -1199.91941501     A.U. after    9 cycles

                          Input orientation:
 ---------------------------------------------------------------------
 Center     Atomic      Atomic             Coordinates (Angstroms)
 Number     Number       Type             X           Y           Z
 ---------------------------------------------------------------------
      1          6           0       -0.029311   -1.401091   -0.285596
      2          6           0        0.763534   -0.067000   -0.214356
      3          9           0        1.804505   -0.123215    0.617321
      4          9           0        1.241261    0.327336   -1.391220
      5         16           0       -0.563306    1.163029    0.389004
      6          8           0       -1.487202    1.356594   -0.665528
      7          8           0       -0.984117    0.962231    1.734072
      8          8           0        0.478725    2.336914    0.376344
      9          9           0       -1.241317   -1.106855    0.190439
     10          9           0       -0.162050   -1.838625   -1.519253
     11          9           0        0.480123   -2.343775    0.479420
     12          1           0        0.740255    2.554096    1.281327
 ---------------------------------------------------------------------

 Normal termination of Gaussian 16 at Sat May 24 07:13:53 2025.
