 Gaussian 16, Revision C.01,
 Gaussian 16:  ES64L-G16RevC.01  3-Jul-2019

 -----------------------------------------------------------------
 #P M062X/Def2TZVPP Symm(None) scf(xqc) pop(None) freq opt(CalcFC)
 -----------------------------------------------------------------

 ------------------------------
 Gaussian input prepared by ASE
 ------------------------------
 Symbolic Z-matrix:
 Charge =  0 Multiplicity = 1

 SCF Done:  E(RM062X) =  -1199.93650038     A.U. after   13 cycles
 SCF Done:  E(RM062X) =  -1199.93697046     A.U. after   12 cycles
 SCF Done:  E(RM062X) =  -1199.93842793     A.U. after   12 cycles
 SCF Done:  E(RM062X) =  -1199.94032552     A.U. after   12 cycles
 SCF Done:  E(RM062X) =  -1199.94032427     A.U. after   12 cycles
 SCF Done:  E(RM062X) =  -1199.94061566     A.U. after   11 cycles
 SCF Done:  E(RM062X) =  -1199.94064738     A.U. after   10 cycles
 SCF Done:  E(RM062X) =  -1199.94067744     A.U. after   11 cycles
 SCF Done:  E(RM062X) =  -1199.94068267     A.U. after   10 cycles
 SCF Done:  E(RM062X) =  -1199.94068286     A.U. after    7 cycles
 Optimization completed.
    -- Stationary point found.
 Normal termination of Gaussian 16 at Sat May 24 04:14:12 2025.

 ---------------------------------------------------------------------
 #P Geom=AllCheck Guess=TCheck SCRF=Check GenChk RM062X/def2TZVPP Freq
 ---------------------------------------------------------------------

 Structure from the checkpoint file:  "2003846667223680600001_r12_insertion_R_2_5_8_IRC_R_prod.chk"
 ------------------------------
 Gaussian input prepared by ASE
 ------------------------------
 Charge =  0 Multiplicity = 1

                          Input orientation:
 ---------------------------------------------------------------------
 Center     Atomic      Atomic             Coordinates (Angstroms)
 Number     Number       Type             X           Y           Z
 ---------------------------------------------------------------------
      1          6           0       -1.130522   -0.947181    0.030126
      2          6           0       -0.450768    0.435421   -0.095963
      3          9           0       -0.711144    0.927858   -1.313412
      4          9           0       -0.955903    1.250618    0.825642
      5         16           0        1.380487    0.384635    0.107329
      6          8           0        1.658517    0.230965    1.482086
      7          8           0        1.885678   -0.476616   -0.901066
      8          8           0        1.698049    1.876358   -0.272705
      9          9           0       -0.770352   -1.733626   -0.968370
     10          9           0       -0.799176   -1.513914    1.178755
     11          9           0       -2.444626   -0.778083   -0.007269
     12          1           0        1.834695    1.957730   -1.227822
 ---------------------------------------------------------------------

 SCF Done:  E(RM062X) =  -1199.94068286     A.U. after    1 cycles

 Isotropic polarizability for W=    0.000000       53.48 Bohr**3.
 End of Minotr F.D. properties file   721 does not exist.

                      1                      2                      3
                      A                      A                      A
 Frequencies --     26.4500                70.0231               128.3331
 Red. masses --     14.6846                13.8364                14.7105
 Frc consts  --      0.0061                 0.0400                 0.1427
 IR Inten    --      1.2548                 0.9790                 1.3477

                      4                      5                      6
                      A                      A                      A
 Frequencies --    193.8203               221.0606               237.9512
 Red. masses --      9.7277                16.9241                 7.9930
 Frc consts  --      0.2153                 0.4873                 0.2666
 IR Inten    --      7.3589                 1.5650                11.4497

                      7                      8                      9
                      A                      A                      A
 Frequencies --    283.5822               318.7743               323.4696
 Red. masses --     13.9026                 5.7584                17.6168
 Frc consts  --      0.6587                 0.3448                 1.0860
 IR Inten    --      0.4045                13.3386                 0.0486

                     10                     11                     12
                      A                      A                      A
 Frequencies --    368.6027               376.3664               446.7019
 Red. masses --      1.8373                12.2336                 4.5693
 Frc consts  --      0.1471                 1.0210                 0.5372
 IR Inten    --     53.7418                 3.1568                23.5835

                     13                     14                     15
                      A                      A                      A
 Frequencies --    499.8409               507.5343               543.9469
 Red. masses --      7.4040                14.4660                17.7402
 Frc consts  --      1.0899                 2.1955                 3.0926
 IR Inten    --      7.3271                33.3981                25.2653

                     16                     17                     18
                      A                      A                      A
 Frequencies --    609.0165               631.2039               664.0836
 Red. masses --     17.1493                19.4010                17.6400
 Frc consts  --      3.7476                 4.5542                 4.5835
 IR Inten    --      3.6931               110.5927                47.6021

                     19                     20                     21
                      A                      A                      A
 Frequencies --    781.7872               897.8317              1040.8208
 Red. masses --     17.3548                16.5627                14.0243
 Frc consts  --      6.2495                 7.8663                 8.9512
 IR Inten    --     19.6341               228.1672                28.3702

                     22                     23                     24
                      A                      A                      A
 Frequencies --   1140.7298              1200.8405              1257.4048
 Red. masses --      1.1813                13.5824                15.7784
 Frc consts  --      0.9057                11.5398                14.6982
 IR Inten    --     93.8791               244.5110                20.5606

                     25                     26                     27
                      A                      A                      A
 Frequencies --   1263.8803              1302.3874              1305.8913
 Red. masses --     13.4234                13.8976                13.2015
 Frc consts  --     12.6336                13.8890                13.2644
 IR Inten    --     86.0580               323.8820               235.1849

                     28                     29                     30
                      A                      A                      A
 Frequencies --   1389.6005              1505.1864              3808.1331
 Red. masses --     12.6906                15.5031                 1.0657
 Frc consts  --     14.4382                20.6943                 9.1052
 IR Inten    --     90.8782               296.2297               187.9890

 - Thermochemistry -
 -------------------
 Temperature   298.150 Kelvin.  Pressure   1.00000 Atm.
 Atom     1 has atomic number  6 and mass  12.00000

 Molecular mass:   199.95666 amu.
 Principal axes and moments of inertia in atomic units:
                           1         2         3
     Eigenvalues --  1118.725192148.480232266.93180
           X            0.87362  -0.47585  -0.10175
           Y            0.48642   0.85970   0.15592
           Z            0.01327  -0.18571   0.98252
 This molecule is an asymmetric top.
 Rotational symmetry number  1.
 Warning -- assumption of classical behavior for rotation
           may cause significant error
 Rotational temperatures (Kelvin)      0.07742     0.04031     0.03821
 Rotational constants (GHZ):           1.61321     0.84001     0.79612
 Zero-point vibrational energy     139635.6 (Joules/Mol)
                                   33.37372 (Kcal/Mol)
 Warning -- explicit consideration of  16 degrees of freedom as
           vibrations may cause significant error
 Vibrational temperatures:     38.06   100.75   184.64   278.86   318.06
          (Kelvin)            342.36   408.01   458.65   465.40   530.34
                              541.51   642.70   719.16   730.23   782.62
                              876.24   908.16   955.47  1124.82  1291.78
                             1497.51  1641.26  1727.74  1809.13  1818.44
                             1873.85  1878.89  1999.33  2165.63  5479.05

 Zero-point correction=                           0.053184 (Hartree/Particle)
 Thermal correction to Energy=                    0.063482
 Thermal correction to Enthalpy=                  0.064427
 Thermal correction to Gibbs Free Energy=         0.016051
 Sum of electronic and zero-point Energies=          -1199.887498
 Sum of electronic and thermal Energies=             -1199.877200
 Sum of electronic and thermal Enthalpies=           -1199.876256
 Sum of electronic and thermal Free Energies=        -1199.924632

                     E (Thermal)             CV                S
                      KCal/Mol        Cal/Mol-Kelvin    Cal/Mol-Kelvin
 Total                   39.836             35.973            101.815
 Electronic               0.000              0.000              0.000
 Translational            0.889              2.981             41.783
 Rotational               0.889              2.981             30.078
 Vibrational             38.058             30.011             29.953
 Vibration     1          0.593              1.985              6.079
 Vibration     2          0.598              1.968              4.153
 Vibration     3          0.611              1.925              2.971
 Vibration     4          0.635              1.848              2.191
 Vibration     5          0.648              1.809              1.950
 Vibration     6          0.656              1.783              1.818
 Vibration     7          0.682              1.704              1.512
 Vibration     8          0.705              1.638              1.316
 Vibration     9          0.708              1.628              1.293
 Vibration    10          0.741              1.537              1.086
 Vibration    11          0.747              1.520              1.054
 Vibration    12          0.806              1.368              0.806
 Vibration    13          0.855              1.250              0.659
 Vibration    14          0.863              1.233              0.640
 Vibration    15          0.899              1.153              0.557
 Vibration    16          0.968              1.013              0.434

 Optimization completed.
    -- Stationary point found.
 Normal termination of Gaussian 16 at Sat May 24 04:18:54 2025.
