 Gaussian 16, Revision C.01,
 Gaussian 16:  ES64L-G16RevC.01  3-Jul-2019

 ----------------------------------------------------------------------
 #P M062X/Def2TZVPP Symm(None) scf(xqc) pop(None) geom(AllCheck,NoKeepC
 onstants) guess(Read) irc(RCFC,reverse,MaxPoints=100,StepSize=2)
 ----------------------------------------------------------------------

 Structure from the checkpoint file:  "2003846667223680600001_Intra_Diels_alder_R_6_7_IRC_R.chk"
 ------------------------------
 Gaussian input prepared by ASE
 ------------------------------
 Charge =  0 Multiplicity = 1

 SCF Done:  E(RM062X) =  -1199.93109398     A.U. after    8 cycles
 SCF Done:  E(RM062X) =  -1199.93109997     A.U. after    8 cycles
 SCF Done:  E(RM062X) =  -1199.93110986     A.U. after    8 cycles
 SCF Done:  E(RM062X) =  -1199.93112358     A.U. after    8 cycles
 SCF Done:  E(RM062X) =  -1199.93114104     A.U. after    8 cycles
 SCF Done:  E(RM062X) =  -1199.93116218     A.U. after    8 cycles
 SCF Done:  E(RM062X) =  -1199.93118695     A.U. after    8 cycles
 SCF Done:  E(RM062X) =  -1199.93121535     A.U. after    8 cycles
 SCF Done:  E(RM062X) =  -1199.93124739     A.U. after    8 cycles
 SCF Done:  E(RM062X) =  -1199.93128310     A.U. after    8 cycles
 SCF Done:  E(RM062X) =  -1199.93880104     A.U. after    8 cycles
 SCF Done:  E(RM062X) =  -1199.93886351     A.U. after    8 cycles
 SCF Done:  E(RM062X) =  -1199.93892408     A.U. after    8 cycles
 SCF Done:  E(RM062X) =  -1199.93898272     A.U. after    8 cycles
 SCF Done:  E(RM062X) =  -1199.93903937     A.U. after    8 cycles
 SCF Done:  E(RM062X) =  -1199.93909398     A.U. after    8 cycles
 SCF Done:  E(RM062X) =  -1199.93914653     A.U. after    8 cycles
 SCF Done:  E(RM062X) =  -1199.93919702     A.U. after    8 cycles
 SCF Done:  E(RM062X) =  -1199.93924550     A.U. after    8 cycles
 SCF Done:  E(RM062X) =  -1199.93929204     A.U. after    8 cycles

                          Input orientation:
 ---------------------------------------------------------------------
 Center     Atomic      Atomic             Coordinates (Angstroms)
 Number     Number       Type             X           Y           Z
 ---------------------------------------------------------------------
      1          6           0       -1.187238   -0.882636    0.023664
      2          6           0       -0.446022    0.464678   -0.123212
      3          9           0       -0.684849    0.955346   -1.338296
      4          9           0       -0.911335    1.323880    0.789422
      5         16           0        1.381204    0.320727    0.118077
      6          8           0        1.849320   -0.712178   -0.723321
      7          8           0        1.621418    0.359496    1.514300
      8          8           0        1.811578    1.679301   -0.546260
      9          9           0       -0.917163   -1.668342   -1.001717
     10          9           0       -0.823187   -1.480916    1.147635
     11          9           0       -2.491680   -0.650874    0.058493
     12          1           0        1.667052    2.420969    0.059674
 ---------------------------------------------------------------------

 Normal termination of Gaussian 16 at Sat May 24 07:20:35 2025.
