 Gaussian 16, Revision C.01,
 Gaussian 16:  ES64L-G16RevC.01  3-Jul-2019

 -----------------------------------------------------------------
 #P M062X/Def2TZVPP Symm(None) scf(xqc) pop(None) freq opt(CalcFC)
 -----------------------------------------------------------------

 ------------------------------
 Gaussian input prepared by ASE
 ------------------------------
 Symbolic Z-matrix:
 Charge =  0 Multiplicity = 1

 SCF Done:  E(RM062X) =  -1199.83371890     A.U. after   13 cycles
 SCF Done:  E(RM062X) =  -1199.83881614     A.U. after   13 cycles
 SCF Done:  E(RM062X) =  -1199.83894371     A.U. after   13 cycles
 SCF Done:  E(RM062X) =  -1199.84166098     A.U. after   14 cycles
 SCF Done:  E(RM062X) =  -1199.84296533     A.U. after   11 cycles
 SCF Done:  E(RM062X) =  -1199.84324347     A.U. after   11 cycles
 SCF Done:  E(RM062X) =  -1199.84328397     A.U. after   12 cycles
 SCF Done:  E(RM062X) =  -1199.84347616     A.U. after   11 cycles
 SCF Done:  E(RM062X) =  -1199.84355724     A.U. after   11 cycles
 SCF Done:  E(RM062X) =  -1199.84356314     A.U. after    8 cycles
 SCF Done:  E(RM062X) =  -1199.84356747     A.U. after    8 cycles
 SCF Done:  E(RM062X) =  -1199.84356804     A.U. after    7 cycles
 Optimization completed.
    -- Stationary point found.
 Normal termination of Gaussian 16 at Sat May 24 07:16:35 2025.

 ---------------------------------------------------------------------
 #P Geom=AllCheck Guess=TCheck SCRF=Check GenChk RM062X/def2TZVPP Freq
 ---------------------------------------------------------------------

 Structure from the checkpoint file:  "2003846667223680600001_r12_insertion_R_9_1_10_IRC_F_prod.chk"
 ------------------------------
 Gaussian input prepared by ASE
 ------------------------------
 Charge =  0 Multiplicity = 1

                          Input orientation:
 ---------------------------------------------------------------------
 Center     Atomic      Atomic             Coordinates (Angstroms)
 Number     Number       Type             X           Y           Z
 ---------------------------------------------------------------------
      1          6           0       -0.880743   -0.721291   -0.415888
      2          6           0       -0.701109    0.594251    0.422952
      3          9           0       -1.219703    1.661664   -0.130762
      4          9           0       -1.093024    0.519895    1.668707
      5         16           0        1.162024    0.240974    0.060955
      6          8           0        2.594499    0.235057    0.088133
      7          8           0        0.449270   -0.999154   -0.722528
      8          8           0        0.993891    1.340963   -1.143485
      9          9           0       -1.425945   -1.704506    0.276533
     10          9           0        1.054868   -0.573836    1.505127
     11          9           0       -1.585010   -0.526968   -1.518085
     12          1           0        1.844051    1.430675   -1.591553
 ---------------------------------------------------------------------

 SCF Done:  E(RM062X) =  -1199.84356804     A.U. after    1 cycles

 Isotropic polarizability for W=    0.000000       56.18 Bohr**3.
 End of Minotr F.D. properties file   721 does not exist.

                      1                      2                      3
                      A                      A                      A
 Frequencies --     61.0201               105.6560               204.8886
 Red. masses --     13.4597                15.0641                18.7546
 Frc consts  --      0.0295                 0.0991                 0.4639
 IR Inten    --      0.9109                 0.3674                 0.2669

                      4                      5                      6
                      A                      A                      A
 Frequencies --    249.7978               274.3971               284.3575
 Red. masses --     16.9214                16.7618                15.3360
 Frc consts  --      0.6221                 0.7436                 0.7306
 IR Inten    --      0.3085                 2.4530                 2.5107

                      7                      8                      9
                      A                      A                      A
 Frequencies --    305.0859               352.9608               376.7344
 Red. masses --      8.3272                14.5925                 7.5635
 Frc consts  --      0.4567                 1.0711                 0.6325
 IR Inten    --      3.2158                 5.0903                 6.1196

                     10                     11                     12
                      A                      A                      A
 Frequencies --    455.3106               475.6187               500.8871
 Red. masses --      1.8444                 9.9822                13.9165
 Frc consts  --      0.2253                 1.3304                 2.0571
 IR Inten    --     24.1781                 1.5473                40.6692

                     13                     14                     15
                      A                      A                      A
 Frequencies --    542.3859               585.8589               604.1671
 Red. masses --      3.5047                15.5886                10.3376
 Frc consts  --      0.6075                 3.1524                 2.2232
 IR Inten    --     83.7953                49.5425                10.0686

                     16                     17                     18
                      A                      A                      A
 Frequencies --    635.5010               641.9990               657.1194
 Red. masses --     16.6072                11.0598                11.7911
 Frc consts  --      3.9517                 2.6858                 2.9998
 IR Inten    --      3.9962                29.2087                28.9397

                     19                     20                     21
                      A                      A                      A
 Frequencies --    742.9584               796.4516               852.8149
 Red. masses --     15.8553                20.3337                16.2956
 Frc consts  --      5.1565                 7.5995                 6.9828
 IR Inten    --      7.2348               405.5433               119.7032

                     22                     23                     24
                      A                      A                      A
 Frequencies --    903.7846              1121.2414              1163.7557
 Red. masses --     13.2035                 2.4111                 2.5928
 Frc consts  --      6.3543                 1.7859                 2.0689
 IR Inten    --    141.1616               122.4275               175.4342

                     25                     26                     27
                      A                      A                      A
 Frequencies --   1262.9423              1307.0126              1324.5943
 Red. masses --     10.1581                13.2344                 8.9679
 Frc consts  --      9.5461                13.3203                 9.2706
 IR Inten    --    186.2614               305.7361               332.9021

                     28                     29                     30
                      A                      A                      A
 Frequencies --   1360.3645              1403.9015              3838.7827
 Red. masses --     10.8992                11.8795                 1.0657
 Frc consts  --     11.8838                13.7950                 9.2528
 IR Inten    --    133.8361               126.8844               160.4606

 - Thermochemistry -
 -------------------
 Temperature   298.150 Kelvin.  Pressure   1.00000 Atm.
 Atom     1 has atomic number  6 and mass  12.00000

 Molecular mass:   199.95666 amu.
 Principal axes and moments of inertia in atomic units:
                           1         2         3
     Eigenvalues --  1255.214371869.402991937.02920
           X            0.97223   0.08975  -0.21614
           Y            0.21789  -0.68420   0.69598
           Z            0.08542   0.72375   0.68476
 This molecule is an asymmetric top.
 Rotational symmetry number  1.
 Warning -- assumption of classical behavior for rotation
           may cause significant error
 Rotational temperatures (Kelvin)      0.06900     0.04633     0.04471
 Rotational constants (GHZ):           1.43780     0.96541     0.93171
 Zero-point vibrational energy     139917.3 (Joules/Mol)
                                   33.44104 (Kcal/Mol)
 Warning -- explicit consideration of  15 degrees of freedom as
           vibrations may cause significant error
 Vibrational temperatures:     87.79   152.02   294.79   359.40   394.80
          (Kelvin)            409.13   438.95   507.83   542.04   655.09
                              684.31   720.66   780.37   842.92   869.26
                              914.34   923.69   945.45  1068.95  1145.92
                             1227.01  1300.34  1613.22  1674.38  1817.09
                             1880.50  1905.80  1957.26  2019.90  5523.15

 Zero-point correction=                           0.053292 (Hartree/Particle)
 Thermal correction to Energy=                    0.062740
 Thermal correction to Enthalpy=                  0.063685
 Thermal correction to Gibbs Free Energy=         0.018206
 Sum of electronic and zero-point Energies=          -1199.790276
 Sum of electronic and thermal Energies=             -1199.780828
 Sum of electronic and thermal Enthalpies=           -1199.779884
 Sum of electronic and thermal Free Energies=        -1199.825362

                     E (Thermal)             CV                S
                      KCal/Mol        Cal/Mol-Kelvin    Cal/Mol-Kelvin
 Total                   39.370             35.244             95.717
 Electronic               0.000              0.000              0.000
 Translational            0.889              2.981             41.783
 Rotational               0.889              2.981             29.898
 Vibrational             37.593             29.282             24.035
 Vibration     1          0.597              1.973              4.424
 Vibration     2          0.605              1.945              3.347
 Vibration     3          0.640              1.833              2.089
 Vibration     4          0.663              1.763              1.732
 Vibration     5          0.677              1.721              1.568
 Vibration     6          0.683              1.703              1.507
 Vibration     7          0.696              1.664              1.389
 Vibration     8          0.729              1.569              1.153
 Vibration     9          0.747              1.520              1.052
 Vibration    10          0.814              1.349              0.780
 Vibration    11          0.832              1.304              0.722
 Vibration    12          0.856              1.248              0.656
 Vibration    13          0.897              1.156              0.560
 Vibration    14          0.943              1.062              0.475
 Vibration    15          0.963              1.023              0.443

                           ! Non-Optimized Parameters !
 Normal termination of Gaussian 16 at Sat May 24 07:23:05 2025.
