 Gaussian 16, Revision C.01,
 Gaussian 16:  ES64L-G16RevC.01  3-Jul-2019

 ----------------------------------------------------------------------
 #P M062X/Def2TZVPP Symm(None) scf(xqc) pop(None) geom(AllCheck,NoKeepC
 onstants) guess(Read) irc(RCFC,reverse,MaxPoints=100,StepSize=2)
 ----------------------------------------------------------------------

 Structure from the checkpoint file:  "2003846667223680600001_r12_insertion_R_9_1_10_IRC_R.chk"
 ------------------------------
 Gaussian input prepared by ASE
 ------------------------------
 Charge =  0 Multiplicity = 1

 SCF Done:  E(RM062X) =  -1199.76411307     A.U. after   10 cycles
 SCF Done:  E(RM062X) =  -1199.76415233     A.U. after   11 cycles
 SCF Done:  E(RM062X) =  -1199.76421740     A.U. after   11 cycles
 SCF Done:  E(RM062X) =  -1199.76430796     A.U. after   11 cycles
 SCF Done:  E(RM062X) =  -1199.76442370     A.U. after   11 cycles
 SCF Done:  E(RM062X) =  -1199.76456437     A.U. after   11 cycles
 SCF Done:  E(RM062X) =  -1199.76472973     A.U. after   11 cycles
 SCF Done:  E(RM062X) =  -1199.76491963     A.U. after   11 cycles
 SCF Done:  E(RM062X) =  -1199.76513397     A.U. after   11 cycles
 SCF Done:  E(RM062X) =  -1199.76537273     A.U. after   11 cycles
 SCF Done:  E(RM062X) =  -1199.85899760     A.U. after    9 cycles
 SCF Done:  E(RM062X) =  -1199.86047598     A.U. after    9 cycles
 SCF Done:  E(RM062X) =  -1199.86193682     A.U. after    9 cycles
 SCF Done:  E(RM062X) =  -1199.86337976     A.U. after    9 cycles
 SCF Done:  E(RM062X) =  -1199.86480453     A.U. after    9 cycles
 SCF Done:  E(RM062X) =  -1199.86621095     A.U. after    9 cycles
 SCF Done:  E(RM062X) =  -1199.86759887     A.U. after    9 cycles
 SCF Done:  E(RM062X) =  -1199.86896824     A.U. after    9 cycles
 SCF Done:  E(RM062X) =  -1199.87031905     A.U. after    9 cycles
 SCF Done:  E(RM062X) =  -1199.87165135     A.U. after    9 cycles

                          Input orientation:
 ---------------------------------------------------------------------
 Center     Atomic      Atomic             Coordinates (Angstroms)
 Number     Number       Type             X           Y           Z
 ---------------------------------------------------------------------
      1          6           0       -0.976363   -0.915242    0.213582
      2          6           0       -0.575770    0.558180    0.377497
      3          9           0       -1.236887    1.456846   -0.333837
      4          9           0       -0.653864    0.873769    1.660849
      5         16           0        1.192753    0.360512   -0.383586
      6          8           0        2.256121    0.406894    0.557699
      7          8           0        1.028786   -0.685109   -1.326208
      8          8           0        1.216293    1.687501   -1.216276
      9          9           0       -1.845288   -1.595600    0.904805
     10          9           0        0.221761   -1.390726    0.809697
     11          9           0       -1.401043   -1.033939   -1.053712
     12          1           0        1.863059    2.299873   -0.840530
 ---------------------------------------------------------------------

 Normal termination of Gaussian 16 at Sat May 24 06:00:48 2025.
