 Gaussian 16, Revision C.01,
 Gaussian 16:  ES64L-G16RevC.01  3-Jul-2019

 ----------------------------------------------------------------------
 #P M062X/Def2TZVPP Symm(None) scf(xqc) pop(None) geom(AllCheck,NoKeepC
 onstants) guess(Read) irc(RCFC,reverse,MaxPoints=100,StepSize=2)
 ----------------------------------------------------------------------

 Structure from the checkpoint file:  "2003846667223680600001_r13_insertion_ROR_1_2_5_6_IRC_R.chk"
 ------------------------------
 Gaussian input prepared by ASE
 ------------------------------
 Charge =  0 Multiplicity = 1

 SCF Done:  E(RM062X) =  -1199.76543442     A.U. after   10 cycles
 SCF Done:  E(RM062X) =  -1199.76550464     A.U. after   11 cycles
 SCF Done:  E(RM062X) =  -1199.76561973     A.U. after   11 cycles
 SCF Done:  E(RM062X) =  -1199.76577856     A.U. after   11 cycles
 SCF Done:  E(RM062X) =  -1199.76597998     A.U. after   11 cycles
 SCF Done:  E(RM062X) =  -1199.76622285     A.U. after   11 cycles
 SCF Done:  E(RM062X) =  -1199.76650603     A.U. after   11 cycles
 SCF Done:  E(RM062X) =  -1199.76682841     A.U. after   11 cycles
 SCF Done:  E(RM062X) =  -1199.76718890     A.U. after   11 cycles
 SCF Done:  E(RM062X) =  -1199.76758642     A.U. after   11 cycles
 SCF Done:  E(RM062X) =  -1199.85370112     A.U. after    9 cycles
 SCF Done:  E(RM062X) =  -1199.85492695     A.U. after    9 cycles
 SCF Done:  E(RM062X) =  -1199.85615012     A.U. after    9 cycles
 SCF Done:  E(RM062X) =  -1199.85737043     A.U. after    9 cycles
 SCF Done:  E(RM062X) =  -1199.85858766     A.U. after    9 cycles
 SCF Done:  E(RM062X) =  -1199.85980159     A.U. after    9 cycles
 SCF Done:  E(RM062X) =  -1199.86101200     A.U. after    9 cycles
 SCF Done:  E(RM062X) =  -1199.86221865     A.U. after    9 cycles
 SCF Done:  E(RM062X) =  -1199.86342133     A.U. after    9 cycles
 SCF Done:  E(RM062X) =  -1199.86461979     A.U. after    9 cycles

                          Input orientation:
 ---------------------------------------------------------------------
 Center     Atomic      Atomic             Coordinates (Angstroms)
 Number     Number       Type             X           Y           Z
 ---------------------------------------------------------------------
      1          6           0       -1.381144   -0.382996    0.479408
      2          6           0        0.232483   -0.716477   -0.409888
      3          9           0        1.003256   -1.765818   -0.062822
      4          9           0       -0.001646   -0.899757   -1.703880
      5         16           0        1.087667    0.838230   -0.039744
      6          8           0       -0.017465    1.691965    0.154304
      7          8           0        2.074768    0.597620    0.950148
      8          8           0        1.748556    1.348475   -1.369219
      9          9           0       -1.999551    0.760823    0.821656
     10          9           0       -2.220408   -0.933024   -0.371592
     11          9           0       -1.233369   -1.000964    1.636976
     12          1           0        2.689135    1.124261   -1.403576
 ---------------------------------------------------------------------

 Normal termination of Gaussian 16 at Sat May 24 07:45:50 2025.
