 Gaussian 16, Revision C.01,
 Gaussian 16:  ES64L-G16RevC.01  3-Jul-2019

 -----------------------------------------------------------------
 #P M062X/Def2TZVPP Symm(None) scf(xqc) pop(None) freq opt(CalcFC)
 -----------------------------------------------------------------

 ------------------------------
 Gaussian input prepared by ASE
 ------------------------------
 Symbolic Z-matrix:
 Charge =  0 Multiplicity = 1

 SCF Done:  E(RM062X) =  -1199.91533902     A.U. after   13 cycles
 SCF Done:  E(RM062X) =  -1199.93410977     A.U. after   12 cycles
 SCF Done:  E(RM062X) =  -1199.93603358     A.U. after   12 cycles
 SCF Done:  E(RM062X) =  -1199.93723850     A.U. after   13 cycles
 SCF Done:  E(RM062X) =  -1199.93804089     A.U. after   12 cycles
 SCF Done:  E(RM062X) =  -1199.93889045     A.U. after   11 cycles
 SCF Done:  E(RM062X) =  -1199.93995813     A.U. after   11 cycles
 SCF Done:  E(RM062X) =  -1199.94017295     A.U. after   11 cycles
 SCF Done:  E(RM062X) =  -1199.94060822     A.U. after   11 cycles
 SCF Done:  E(RM062X) =  -1199.94066284     A.U. after   10 cycles
 SCF Done:  E(RM062X) =  -1199.94066783     A.U. after    8 cycles
 SCF Done:  E(RM062X) =  -1199.94066808     A.U. after    7 cycles
 SCF Done:  E(RM062X) =  -1199.94066831     A.U. after    8 cycles
 SCF Done:  E(RM062X) =  -1199.94066848     A.U. after    8 cycles
 Optimization completed.
    -- Stationary point found.
 Normal termination of Gaussian 16 at Sat May 24 05:36:40 2025.

 ---------------------------------------------------------------------
 #P Geom=AllCheck Guess=TCheck SCRF=Check GenChk RM062X/def2TZVPP Freq
 ---------------------------------------------------------------------

 Structure from the checkpoint file:  "2003846667223680600001_r12_insertion_R_9_1_2_IRC_R_prod.chk"
 ------------------------------
 Gaussian input prepared by ASE
 ------------------------------
 Charge =  0 Multiplicity = 1

                          Input orientation:
 ---------------------------------------------------------------------
 Center     Atomic      Atomic             Coordinates (Angstroms)
 Number     Number       Type             X           Y           Z
 ---------------------------------------------------------------------
      1          6           0       -1.200508   -0.834565    0.239577
      2          6           0       -0.362445    0.464109    0.263980
      3          9           0       -0.987061    1.387263   -0.477786
      4          9           0       -0.270706    0.896202    1.518421
      5         16           0        1.340340    0.261020   -0.412072
      6          8           0        2.118007   -0.397168    0.564031
      7          8           0        1.202784   -0.193005   -1.749542
      8          8           0        1.771446    1.772516   -0.415065
      9          9           0       -0.551819   -1.805539    0.861660
     10          9           0       -2.348398   -0.610387    0.863163
     11          9           0       -1.452210   -1.200659   -1.004518
     12          1           0        1.517880    2.192668   -1.249751
 ---------------------------------------------------------------------

 SCF Done:  E(RM062X) =  -1199.94066848     A.U. after    1 cycles

 Isotropic polarizability for W=    0.000000       53.46 Bohr**3.
 End of Minotr F.D. properties file   721 does not exist.

                      1                      2                      3
                      A                      A                      A
 Frequencies --     21.8964                68.5740               128.2406
 Red. masses --     14.4261                14.0524                14.6591
 Frc consts  --      0.0041                 0.0389                 0.1420
 IR Inten    --      1.3167                 0.8891                 1.3672

                      4                      5                      6
                      A                      A                      A
 Frequencies --    193.0593               221.7099               238.2334
 Red. masses --      9.4561                17.1756                 7.7939
 Frc consts  --      0.2077                 0.4974                 0.2606
 IR Inten    --      7.6510                 1.5241                11.9719

                      7                      8                      9
                      A                      A                      A
 Frequencies --    283.9410               318.3729               323.2043
 Red. masses --     13.8591                 5.5680                17.6591
 Frc consts  --      0.6583                 0.3325                 1.0869
 IR Inten    --      0.4166                14.1276                 0.0527

                     10                     11                     12
                      A                      A                      A
 Frequencies --    366.9031               376.1900               446.3142
 Red. masses --      1.8236                14.2255                 4.6504
 Frc consts  --      0.1446                 1.1861                 0.5458
 IR Inten    --     54.3377                 1.8633                23.2437

                     13                     14                     15
                      A                      A                      A
 Frequencies --    499.6182               507.1276               543.9041
 Red. masses --      7.4655                14.3959                17.7525
 Frc consts  --      1.0980                 2.1813                 3.0942
 IR Inten    --      6.9242                33.4941                25.6391

                     16                     17                     18
                      A                      A                      A
 Frequencies --    608.9808               631.0688               663.9971
 Red. masses --     17.1512                19.4387                17.6195
 Frc consts  --      3.7476                 4.5611                 4.5770
 IR Inten    --      3.7010               110.9795                47.1277

                     19                     20                     21
                      A                      A                      A
 Frequencies --    781.8309               896.4819              1040.7497
 Red. masses --     17.3569                16.5869                14.0086
 Frc consts  --      6.2510                 7.8541                 8.9400
 IR Inten    --     19.7170               227.3220                29.1789

                     22                     23                     24
                      A                      A                      A
 Frequencies --   1141.5120              1200.6236              1256.9230
 Red. masses --      1.1809                13.6178                15.8423
 Frc consts  --      0.9066                11.5657                14.7464
 IR Inten    --     93.5411               247.0339                18.9471

                     25                     26                     27
                      A                      A                      A
 Frequencies --   1264.1950              1302.5778              1305.7103
 Red. masses --     13.3860                13.8581                13.2077
 Frc consts  --     12.6046                13.8536                13.2669
 IR Inten    --     87.6560               321.2729               235.2438

                     28                     29                     30
                      A                      A                      A
 Frequencies --   1390.7971              1504.4099              3807.9891
 Red. masses --     12.6840                15.4745                 1.0657
 Frc consts  --     14.4556                20.6348                 9.1046
 IR Inten    --     91.3502               296.7694               187.5689

 - Thermochemistry -
 -------------------
 Temperature   298.150 Kelvin.  Pressure   1.00000 Atm.
 Atom     1 has atomic number  6 and mass  12.00000

 Molecular mass:   199.95666 amu.
 Principal axes and moments of inertia in atomic units:
                           1         2         3
     Eigenvalues --  1118.883852147.770432266.37514
           X            0.88337  -0.32191   0.34063
           Y            0.40774   0.88623  -0.21989
           Z           -0.23110   0.33313   0.91412
 This molecule is an asymmetric top.
 Rotational symmetry number  1.
 Warning -- assumption of classical behavior for rotation
           may cause significant error
 Rotational temperatures (Kelvin)      0.07741     0.04033     0.03822
 Rotational constants (GHZ):           1.61298     0.84029     0.79631
 Zero-point vibrational energy     139575.1 (Joules/Mol)
                                   33.35925 (Kcal/Mol)
 Warning -- explicit consideration of  16 degrees of freedom as
           vibrations may cause significant error
 Vibrational temperatures:     31.50    98.66   184.51   277.77   318.99
          (Kelvin)            342.76   408.53   458.07   465.02   527.89
                              541.25   642.15   718.84   729.64   782.56
                              876.19   907.97   955.34  1124.88  1289.84
                             1497.41  1642.38  1727.43  1808.43  1818.89
                             1874.12  1878.63  2001.05  2164.51  5478.85

 Zero-point correction=                           0.053161 (Hartree/Particle)
 Thermal correction to Energy=                    0.063476
 Thermal correction to Enthalpy=                  0.064420
 Thermal correction to Gibbs Free Energy=         0.015840
 Sum of electronic and zero-point Energies=          -1199.887507
 Sum of electronic and thermal Energies=             -1199.877193
 Sum of electronic and thermal Enthalpies=           -1199.876249
 Sum of electronic and thermal Free Energies=        -1199.924828

                     E (Thermal)             CV                S
                      KCal/Mol        Cal/Mol-Kelvin    Cal/Mol-Kelvin
 Total                   39.832             35.983            102.245
 Electronic               0.000              0.000              0.000
 Translational            0.889              2.981             41.783
 Rotational               0.889              2.981             30.078
 Vibrational             38.054             30.021             30.384
 Vibration     1          0.593              1.985              6.454
 Vibration     2          0.598              1.969              4.194
 Vibration     3          0.611              1.925              2.972
 Vibration     4          0.635              1.849              2.198
 Vibration     5          0.648              1.808              1.945
 Vibration     6          0.656              1.782              1.816
 Vibration     7          0.682              1.703              1.510
 Vibration     8          0.705              1.638              1.318
 Vibration     9          0.708              1.629              1.294
 Vibration    10          0.740              1.540              1.093
 Vibration    11          0.747              1.521              1.054
 Vibration    12          0.806              1.369              0.807
 Vibration    13          0.855              1.251              0.659
 Vibration    14          0.862              1.234              0.641
 Vibration    15          0.899              1.153              0.557
 Vibration    16          0.968              1.013              0.434

 Optimization completed.
    -- Stationary point found.
 Normal termination of Gaussian 16 at Sat May 24 05:40:52 2025.
