 Gaussian 16, Revision C.01,
 Gaussian 16:  ES64L-G16RevC.01  3-Jul-2019

 ----------------------------------------------------------------------
 #P M062X/Def2TZVPP Symm(None) scf(xqc) pop(None) geom(AllCheck,NoKeepC
 onstants) guess(Read) irc(RCFC,forward,MaxPoints=100,StepSize=2)
 ----------------------------------------------------------------------

 Structure from the checkpoint file:  "2003846667223680600001_r12_insertion_R_12_8_5_IRC_F.chk"
 ------------------------------
 Gaussian input prepared by ASE
 ------------------------------
 Charge =  0 Multiplicity = 1

 SCF Done:  E(RM062X) =  -1199.88458628     A.U. after    8 cycles
 SCF Done:  E(RM062X) =  -1199.88467141     A.U. after    9 cycles
 SCF Done:  E(RM062X) =  -1199.88481284     A.U. after    9 cycles
 SCF Done:  E(RM062X) =  -1199.88500951     A.U. after    9 cycles
 SCF Done:  E(RM062X) =  -1199.88525992     A.U. after    9 cycles
 SCF Done:  E(RM062X) =  -1199.88556220     A.U. after    9 cycles
 SCF Done:  E(RM062X) =  -1199.88591438     A.U. after    9 cycles
 SCF Done:  E(RM062X) =  -1199.88631436     A.U. after    9 cycles
 SCF Done:  E(RM062X) =  -1199.88676002     A.U. after    9 cycles
 SCF Done:  E(RM062X) =  -1199.88724916     A.U. after    9 cycles
 SCF Done:  E(RM062X) =  -1199.93270239     A.U. after    7 cycles
 SCF Done:  E(RM062X) =  -1199.93292472     A.U. after    7 cycles
 SCF Done:  E(RM062X) =  -1199.93314244     A.U. after    7 cycles
 SCF Done:  E(RM062X) =  -1199.93335567     A.U. after    7 cycles
 SCF Done:  E(RM062X) =  -1199.93356448     A.U. after    7 cycles
 SCF Done:  E(RM062X) =  -1199.93376896     A.U. after    7 cycles
 SCF Done:  E(RM062X) =  -1199.93396921     A.U. after    7 cycles
 SCF Done:  E(RM062X) =  -1199.93416529     A.U. after    7 cycles
 SCF Done:  E(RM062X) =  -1199.93435727     A.U. after    7 cycles
 SCF Done:  E(RM062X) =  -1199.93454522     A.U. after    7 cycles

                          Input orientation:
 ---------------------------------------------------------------------
 Center     Atomic      Atomic             Coordinates (Angstroms)
 Number     Number       Type             X           Y           Z
 ---------------------------------------------------------------------
      1          6           0       -1.107535   -0.981062    0.090176
      2          6           0       -0.511206    0.438369   -0.039780
      3          9           0       -0.880200    0.964630   -1.204797
      4          9           0       -0.973829    1.193103    0.956325
      5         16           0        1.334698    0.539958    0.068467
      6          8           0        1.709010   -0.258962    1.175231
      7          8           0        1.835183    0.003895   -1.321352
      8          8           0        1.651895    1.922930   -0.039188
      9          9           0       -0.498416   -1.794457   -0.762302
     10          9           0       -0.961233   -1.440447    1.317513
     11          9           0       -2.399256   -0.934852   -0.203029
     12          1           0        2.160570    0.790428   -1.786180
 ---------------------------------------------------------------------

 Normal termination of Gaussian 16 at Sat May 24 05:11:23 2025.
