 Gaussian 16, Revision C.01,
 Gaussian 16:  ES64L-G16RevC.01  3-Jul-2019

 ----------------------------------------------------------------------
 #P M062X/Def2TZVPP Symm(None) scf(xqc) pop(None) geom(AllCheck,NoKeepC
 onstants) guess(Read) irc(RCFC,forward,MaxPoints=100,StepSize=2)
 ----------------------------------------------------------------------

 Structure from the checkpoint file:  "2003846667223680600001_r12_insertion_R_9_1_2_IRC_F.chk"
 ------------------------------
 Gaussian input prepared by ASE
 ------------------------------
 Charge =  0 Multiplicity = 1

 SCF Done:  E(RM062X) =  -1199.74940920     A.U. after   10 cycles
 SCF Done:  E(RM062X) =  -1199.74954872     A.U. after   11 cycles
 SCF Done:  E(RM062X) =  -1199.74977809     A.U. after   11 cycles
 SCF Done:  E(RM062X) =  -1199.75009443     A.U. after   11 cycles
 SCF Done:  E(RM062X) =  -1199.75049474     A.U. after   11 cycles
 SCF Done:  E(RM062X) =  -1199.75097580     A.U. after   11 cycles
 SCF Done:  E(RM062X) =  -1199.75153428     A.U. after   11 cycles
 SCF Done:  E(RM062X) =  -1199.75216667     A.U. after   11 cycles
 SCF Done:  E(RM062X) =  -1199.75286931     A.U. after   11 cycles
 SCF Done:  E(RM062X) =  -1199.75363847     A.U. after   11 cycles
 SCF Done:  E(RM062X) =  -1199.83600400     A.U. after   10 cycles
 SCF Done:  E(RM062X) =  -1199.83641842     A.U. after   10 cycles
 SCF Done:  E(RM062X) =  -1199.83682190     A.U. after   10 cycles
 SCF Done:  E(RM062X) =  -1199.83721467     A.U. after   10 cycles
 SCF Done:  E(RM062X) =  -1199.83759690     A.U. after   10 cycles
 SCF Done:  E(RM062X) =  -1199.83796870     A.U. after   10 cycles
 SCF Done:  E(RM062X) =  -1199.83833016     A.U. after   10 cycles
 SCF Done:  E(RM062X) =  -1199.83868140     A.U. after   10 cycles
 SCF Done:  E(RM062X) =  -1199.83902252     A.U. after   10 cycles
 SCF Done:  E(RM062X) =  -1199.83935371     A.U. after   10 cycles

                          Input orientation:
 ---------------------------------------------------------------------
 Center     Atomic      Atomic             Coordinates (Angstroms)
 Number     Number       Type             X           Y           Z
 ---------------------------------------------------------------------
      1          6           0       -2.679007   -0.533355    0.499517
      2          6           0       -0.038901    0.297603    0.048642
      3          9           0       -0.743358    0.904317   -0.893611
      4          9           0       -0.313578    0.831722    1.220227
      5         16           0        1.716541    0.355168   -0.335385
      6          8           0        2.371676   -0.179307    0.793820
      7          8           0        1.830974   -0.170355   -1.647689
      8          8           0        1.934490    1.908853   -0.357087
      9          9           0       -0.302020   -1.004525    0.060775
     10          9           0       -2.361228   -1.326642    1.470330
     11          9           0       -2.716665   -1.285572   -0.553193
     12          1           0        1.845794    2.247216   -1.259873
 ---------------------------------------------------------------------

 Normal termination of Gaussian 16 at Sat May 24 05:24:25 2025.
