 Gaussian 16, Revision C.01,
 Gaussian 16:  ES64L-G16RevC.01  3-Jul-2019

 ----------------------------------------------------------------------
 #P M062X/Def2TZVPP Symm(None) scf(xqc) pop(None) geom(AllCheck,NoKeepC
 onstants) guess(Read) irc(RCFC,reverse,MaxPoints=100,StepSize=2)
 ----------------------------------------------------------------------

 Structure from the checkpoint file:  "2003846667223680600001_r13_insertion_ROR_1_2_5_8_IRC_R.chk"
 ------------------------------
 Gaussian input prepared by ASE
 ------------------------------
 Charge =  0 Multiplicity = 1

 SCF Done:  E(RM062X) =  -1199.74837905     A.U. after   10 cycles
 SCF Done:  E(RM062X) =  -1199.74845071     A.U. after   11 cycles
 SCF Done:  E(RM062X) =  -1199.74857043     A.U. after   11 cycles
 SCF Done:  E(RM062X) =  -1199.74873820     A.U. after   11 cycles
 SCF Done:  E(RM062X) =  -1199.74895380     A.U. after   11 cycles
 SCF Done:  E(RM062X) =  -1199.74921686     A.U. after   11 cycles
 SCF Done:  E(RM062X) =  -1199.74952685     A.U. after   11 cycles
 SCF Done:  E(RM062X) =  -1199.74988308     A.U. after   11 cycles
 SCF Done:  E(RM062X) =  -1199.75028475     A.U. after   11 cycles
 SCF Done:  E(RM062X) =  -1199.75073092     A.U. after   11 cycles
 SCF Done:  E(RM062X) =  -1199.84019796     A.U. after    9 cycles
 SCF Done:  E(RM062X) =  -1199.84133671     A.U. after    9 cycles
 SCF Done:  E(RM062X) =  -1199.84247096     A.U. after    9 cycles
 SCF Done:  E(RM062X) =  -1199.84360065     A.U. after    9 cycles
 SCF Done:  E(RM062X) =  -1199.84472570     A.U. after    9 cycles
 SCF Done:  E(RM062X) =  -1199.84584603     A.U. after    9 cycles
 SCF Done:  E(RM062X) =  -1199.84696154     A.U. after    9 cycles
 SCF Done:  E(RM062X) =  -1199.84807215     A.U. after    9 cycles
 SCF Done:  E(RM062X) =  -1199.84917774     A.U. after    9 cycles
 SCF Done:  E(RM062X) =  -1199.85027824     A.U. after    9 cycles

                          Input orientation:
 ---------------------------------------------------------------------
 Center     Atomic      Atomic             Coordinates (Angstroms)
 Number     Number       Type             X           Y           Z
 ---------------------------------------------------------------------
      1          6           0       -1.365709   -0.461304   -0.013683
      2          6           0        0.424892   -0.702053    0.312019
      3          9           0        0.733602   -0.973160    1.575453
      4          9           0        0.932674   -1.716045   -0.392394
      5         16           0        1.120187    0.909191   -0.206530
      6          8           0        2.049876    1.492348    0.686055
      7          8           0        1.329431    0.845164   -1.610327
      8          8           0       -0.260680    1.586181    0.114008
      9          9           0       -1.858334   -0.984083    1.087917
     10          9           0       -2.256204    0.561554   -0.241370
     11          9           0       -1.440731   -1.107359   -1.160906
     12          1           0       -0.518312    2.270689   -0.516610
 ---------------------------------------------------------------------

 Normal termination of Gaussian 16 at Sat May 24 08:04:12 2025.
