 Gaussian 16, Revision C.01,
 Gaussian 16:  ES64L-G16RevC.01  3-Jul-2019

 ----------------------------------------------------------------------
 #P M062X/Def2TZVPP Symm(None) scf(xqc) pop(None) opt(NoFreeze,TS,CalcA
 ll,NoEigentest,MaxCycle=999)
 ----------------------------------------------------------------------

 ------------------------------
 Gaussian input prepared by ASE
 ------------------------------
 Symbolic Z-matrix:
 Charge =  0 Multiplicity = 1

 SCF Done:  E(RM062X) =  -1199.77893852     A.U. after   15 cycles
 SCF Done:  E(RM062X) =  -1199.77580488     A.U. after   14 cycles
 SCF Done:  E(RM062X) =  -1199.77215422     A.U. after   14 cycles
 SCF Done:  E(RM062X) =  -1199.77070401     A.U. after   14 cycles
 SCF Done:  E(RM062X) =  -1199.77218162     A.U. after   13 cycles
 SCF Done:  E(RM062X) =  -1199.77237901     A.U. after   13 cycles
 SCF Done:  E(RM062X) =  -1199.77241669     A.U. after   12 cycles
 SCF Done:  E(RM062X) =  -1199.77241762     A.U. after    9 cycles

 Isotropic polarizability for W=    0.000000       66.84 Bohr**3.
 End of Minotr F.D. properties file   721 does not exist.

 Optimization completed.
    -- Stationary point found.

                          Input orientation:
 ---------------------------------------------------------------------
 Center     Atomic      Atomic             Coordinates (Angstroms)
 Number     Number       Type             X           Y           Z
 ---------------------------------------------------------------------
      1          6           0        1.746584   -0.005189   -0.139297
      2          6           0        2.349172    1.259172   -0.018812
      3          9           0        3.278120    1.359069    0.920381
      4          9           0        2.696492    1.837004   -1.150652
      5         16           0        0.583150    2.456866    0.724734
      6          8           0       -0.177614    2.869415   -0.400112
      7          8           0        0.320880    2.508233    2.128177
      8          8           0        1.805547    3.545938    0.639199
      9          9           0       -0.055782    0.783919    0.642735
     10          9           0        1.172845   -0.371930   -1.205908
     11          9           0        1.789696   -0.867660    0.787270
     12          1           0        2.145296    3.662286    1.536131
 ---------------------------------------------------------------------

 ******    1 imaginary frequencies (negative Signs) ******

                      1                      2                      3
                      A                      A                      A
 Frequencies --   -552.8256                32.7087                74.7905
 Red. masses --     12.7974                15.1476                12.4830
 Frc consts  --      2.3044                 0.0095                 0.0411
 IR Inten    --    165.0598                 1.4033                 2.2666

                      4                      5                      6
                      A                      A                      A
 Frequencies --    173.2957               188.4648               206.8130
 Red. masses --     17.7188                17.8715                18.7017
 Frc consts  --      0.3135                 0.3740                 0.4713
 IR Inten    --      3.8121                29.6204                 1.2611

                      7                      8                      9
                      A                      A                      A
 Frequencies --    229.6266               241.8836               294.0227
 Red. masses --     16.5817                16.4545                 9.4094
 Frc consts  --      0.5151                 0.5672                 0.4793
 IR Inten    --      1.6012                 2.1146                 8.7086

                     10                     11                     12
                      A                      A                      A
 Frequencies --    341.2643               395.4915               403.1275
 Red. masses --     12.0252                 2.2922                 3.5493
 Frc consts  --      0.8251                 0.2112                 0.3398
 IR Inten    --     10.0170                 6.2817                29.3470

                     13                     14                     15
                      A                      A                      A
 Frequencies --    464.0204               477.1645               520.6342
 Red. masses --     11.1185                 6.9847                 5.3774
 Frc consts  --      1.4105                 0.9370                 0.8588
 IR Inten    --     32.5763               279.5529                10.8862

                     16                     17                     18
                      A                      A                      A
 Frequencies --    547.1618               556.7293               603.4282
 Red. masses --      8.8152                15.2218                15.5555
 Frc consts  --      1.5549                 2.7797                 3.3372
 IR Inten    --    273.1618                 7.3502                83.5924

                     19                     20                     21
                      A                      A                      A
 Frequencies --    614.3039               665.9650               765.9374
 Red. masses --     15.7879                13.3469                16.2010
 Frc consts  --      3.5103                 3.4877                 5.5999
 IR Inten    --     10.4698                 2.3529               198.2384

                     22                     23                     24
                      A                      A                      A
 Frequencies --    834.5822              1145.6626              1184.3537
 Red. masses --     17.4206                 6.0238                 1.3809
 Frc consts  --      7.1491                 4.6583                 1.1413
 IR Inten    --     62.5271               196.6262               114.6186

                     25                     26                     27
                      A                      A                      A
 Frequencies --   1244.3691              1344.8175              1467.9597
 Red. masses --     14.0032                13.1908                12.5094
 Frc consts  --     12.7754                14.0555                15.8823
 IR Inten    --    337.0061               133.8308               196.2572

                     28                     29                     30
                      A                      A                      A
 Frequencies --   1533.6977              1620.4873              3831.1047
 Red. masses --     13.2558                12.5046                 1.0657
 Frc consts  --     18.3711                19.3468                 9.2160
 IR Inten    --    315.7685               617.7085               160.0063

 - Thermochemistry -
 -------------------
 Temperature   298.150 Kelvin.  Pressure   1.00000 Atm.
 Atom     1 has atomic number  6 and mass  12.00000

 Molecular mass:   199.95666 amu.
 Principal axes and moments of inertia in atomic units:
                           1         2         3
     Eigenvalues --  1290.335111971.608132230.33635
           X           -0.37104   0.88777   0.27239
           Y            0.87639   0.43175  -0.21338
           Z            0.30704  -0.15954   0.93823
 This molecule is an asymmetric top.
 Rotational symmetry number  1.
 Warning -- assumption of classical behavior for rotation
           may cause significant error
 Rotational temperatures (Kelvin)      0.06713     0.04393     0.03883
 Rotational constants (GHZ):           1.39866     0.91537     0.80918
    1 imaginary frequencies ignored.
 Zero-point vibrational energy     131612.4 (Joules/Mol)
                                   31.45611 (Kcal/Mol)
 Warning -- explicit consideration of  18 degrees of freedom as
           vibrations may cause significant error
 Vibrational temperatures:     47.06   107.61   249.33   271.16   297.56
          (Kelvin)            330.38   348.02   423.03   491.00   569.02
                              580.01   667.62   686.53   749.08   787.24
                              801.01   868.20   883.85   958.18  1102.01
                             1200.78  1648.35  1704.02  1790.37  1934.89
                             2112.07  2206.65  2331.52  5512.11

 Zero-point correction=                           0.050129 (Hartree/Particle)
 Thermal correction to Energy=                    0.060532
 Thermal correction to Enthalpy=                  0.061476
 Thermal correction to Gibbs Free Energy=         0.013233
 Sum of electronic and zero-point Energies=          -1199.722289
 Sum of electronic and thermal Energies=             -1199.711885
 Sum of electronic and thermal Enthalpies=           -1199.710941
 Sum of electronic and thermal Free Energies=        -1199.759185

                     E (Thermal)             CV                S
                      KCal/Mol        Cal/Mol-Kelvin    Cal/Mol-Kelvin
 Total                   37.985             36.559            101.536
 Electronic               0.000              0.000              0.000
 Translational            0.889              2.981             41.783
 Rotational               0.889              2.981             30.118
 Vibrational             36.207             30.597             29.635
 Vibration     1          0.594              1.983              5.658
 Vibration     2          0.599              1.966              4.023
 Vibration     3          0.627              1.875              2.399
 Vibration     4          0.633              1.856              2.243
 Vibration     5          0.641              1.830              2.072
 Vibration     6          0.652              1.796              1.882
 Vibration     7          0.658              1.776              1.789
 Vibration     8          0.689              1.685              1.451
 Vibration     9          0.721              1.593              1.206
 Vibration    10          0.762              1.480              0.979
 Vibration    11          0.769              1.463              0.951
 Vibration    12          0.822              1.330              0.754
 Vibration    13          0.834              1.301              0.718
 Vibration    14          0.876              1.204              0.608
 Vibration    15          0.902              1.146              0.550
 Vibration    16          0.912              1.125              0.530
 Vibration    17          0.962              1.025              0.444
 Vibration    18          0.974              1.002              0.426

 Normal termination of Gaussian 16 at Sat May 24 05:55:19 2025.
