 Gaussian 16, Revision C.01,
 Gaussian 16:  ES64L-G16RevC.01  3-Jul-2019

 -----------------------------------------------------------------
 #P M062X/Def2TZVPP Symm(None) scf(xqc) pop(None) freq opt(CalcFC)
 -----------------------------------------------------------------

 ------------------------------
 Gaussian input prepared by ASE
 ------------------------------
 Symbolic Z-matrix:
 Charge =  0 Multiplicity = 1

 SCF Done:  E(RM062X) =  -1199.90417673     A.U. after   13 cycles
 SCF Done:  E(RM062X) =  -1199.92838228     A.U. after   12 cycles
 SCF Done:  E(RM062X) =  -1199.93432614     A.U. after   12 cycles
 SCF Done:  E(RM062X) =  -1199.93703092     A.U. after   14 cycles
 SCF Done:  E(RM062X) =  -1199.90893270     A.U. after   14 cycles
 SCF Done:  E(RM062X) =  -1199.93629882     A.U. after   12 cycles
 SCF Done:  E(RM062X) =  -1199.93722579     A.U. after    9 cycles
 SCF Done:  E(RM062X) =  -1199.93882017     A.U. after   12 cycles
 SCF Done:  E(RM062X) =  -1199.93982659     A.U. after   12 cycles
 SCF Done:  E(RM062X) =  -1199.94039216     A.U. after   11 cycles
 SCF Done:  E(RM062X) =  -1199.94053276     A.U. after   11 cycles
 SCF Done:  E(RM062X) =  -1199.94054960     A.U. after   10 cycles
 SCF Done:  E(RM062X) =  -1199.94056526     A.U. after    9 cycles
 SCF Done:  E(RM062X) =  -1199.94056587     A.U. after    7 cycles
 Optimization completed.
    -- Stationary point found.
 Normal termination of Gaussian 16 at Sat May 24 05:22:08 2025.

 ---------------------------------------------------------------------
 #P Geom=AllCheck Guess=TCheck SCRF=Check GenChk RM062X/def2TZVPP Freq
 ---------------------------------------------------------------------

 Structure from the checkpoint file:  "2003846667223680600001_r12_insertion_R_3_2_5_IRC_F_prod.chk"
 ------------------------------
 Gaussian input prepared by ASE
 ------------------------------
 Charge =  0 Multiplicity = 1

                          Input orientation:
 ---------------------------------------------------------------------
 Center     Atomic      Atomic             Coordinates (Angstroms)
 Number     Number       Type             X           Y           Z
 ---------------------------------------------------------------------
      1          6           0       -1.125806   -0.808281   -0.271548
      2          6           0       -0.456966    0.429926    0.368734
      3          9           0       -0.933507    1.531121   -0.223614
      4          9           0       -0.761737    0.457822    1.663269
      5         16           0        1.381971    0.474451    0.233223
      6          8           0        1.797126    1.580010    1.019056
      7          8           0        1.860234   -0.841914    0.414359
      8          8           0        1.545040    0.831203   -1.287539
      9          9           0       -0.722149   -0.949258   -1.525668
     10          9           0       -0.834630   -1.898320    0.411505
     11          9           0       -2.440437   -0.632114   -0.261535
     12          1           0        1.552756    1.791936   -1.407769
 ---------------------------------------------------------------------

 SCF Done:  E(RM062X) =  -1199.94056587     A.U. after    1 cycles

 Isotropic polarizability for W=    0.000000       53.52 Bohr**3.
 End of Minotr F.D. properties file   721 does not exist.

                      1                      2                      3
                      A                      A                      A
 Frequencies --     46.7927                71.8706               135.1394
 Red. masses --     13.5053                15.7826                16.4569
 Frc consts  --      0.0174                 0.0480                 0.1771
 IR Inten    --      2.0324                 0.6028                 0.5302

                      4                      5                      6
                      A                      A                      A
 Frequencies --    192.9240               222.8086               241.6781
 Red. masses --      5.7422                17.3004                14.8521
 Frc consts  --      0.1259                 0.5060                 0.5111
 IR Inten    --     14.0186                 1.2037                 6.9274

                      7                      8                      9
                      A                      A                      A
 Frequencies --    286.6664               315.3245               323.1939
 Red. masses --     10.8619                16.9979                 5.9583
 Frc consts  --      0.5259                 0.9958                 0.3667
 IR Inten    --      0.8679                 0.1325                10.1767

                     10                     11                     12
                      A                      A                      A
 Frequencies --    355.2642               379.4705               446.8262
 Red. masses --      2.0425                 5.9101                14.1456
 Frc consts  --      0.1519                 0.5014                 1.6640
 IR Inten    --     48.0632                11.8930                11.2021

                     13                     14                     15
                      A                      A                      A
 Frequencies --    473.6798               529.1727               542.7917
 Red. masses --      4.2905                14.4555                17.8953
 Frc consts  --      0.5672                 2.3849                 3.1064
 IR Inten    --     30.9353                17.3821                20.5474

                     16                     17                     18
                      A                      A                      A
 Frequencies --    609.8059               630.6266               664.3890
 Red. masses --     17.2583                19.2869                17.3882
 Frc consts  --      3.7812                 4.5191                 4.5222
 IR Inten    --      5.3264               109.6957                48.0294

                     19                     20                     21
                      A                      A                      A
 Frequencies --    781.5266               904.2706              1040.7025
 Red. masses --     17.3620                16.7571                13.5997
 Frc consts  --      6.2479                 8.0732                 8.6782
 IR Inten    --     11.3740               186.2485                96.2628

                     22                     23                     24
                      A                      A                      A
 Frequencies --   1142.4404              1196.6680              1256.4389
 Red. masses --      1.1856                13.9667                13.9092
 Frc consts  --      0.9117                11.7840                12.9370
 IR Inten    --     87.1977               127.4003                41.4946

                     25                     26                     27
                      A                      A                      A
 Frequencies --   1275.6220              1287.1029              1311.0513
 Red. masses --     14.7806                13.5203                13.3437
 Frc consts  --     14.1705                13.1966                13.5134
 IR Inten    --    191.5573               197.4769               366.2910

                     28                     29                     30
                      A                      A                      A
 Frequencies --   1389.2923              1502.3249              3807.5798
 Red. masses --     12.6982                15.3508                 1.0657
 Frc consts  --     14.4404                20.4132                 9.1026
 IR Inten    --     82.0906               279.8530               190.2347

 - Thermochemistry -
 -------------------
 Temperature   298.150 Kelvin.  Pressure   1.00000 Atm.
 Atom     1 has atomic number  6 and mass  12.00000

 Molecular mass:   199.95666 amu.
 Principal axes and moments of inertia in atomic units:
                           1         2         3
     Eigenvalues --  1131.786922108.671952245.58505
           X            0.88302  -0.44991   0.13362
           Y            0.45229   0.73973  -0.49823
           Z            0.12531   0.50038   0.85669
 This molecule is an asymmetric top.
 Rotational symmetry number  1.
 Warning -- assumption of classical behavior for rotation
           may cause significant error
 Rotational temperatures (Kelvin)      0.07653     0.04108     0.03857
 Rotational constants (GHZ):           1.59459     0.85587     0.80368
 Zero-point vibrational energy     139744.4 (Joules/Mol)
                                   33.39972 (Kcal/Mol)
 Warning -- explicit consideration of  16 degrees of freedom as
           vibrations may cause significant error
 Vibrational temperatures:     67.32   103.41   194.44   277.57   320.57
          (Kelvin)            347.72   412.45   453.68   465.00   511.15
                              545.97   642.88   681.52   761.36   780.96
                              877.37   907.33   955.91  1124.44  1301.04
                             1497.34  1643.72  1721.74  1807.74  1835.34
                             1851.85  1886.31  1998.88  2161.51  5478.26

 Zero-point correction=                           0.053226 (Hartree/Particle)
 Thermal correction to Energy=                    0.063473
 Thermal correction to Enthalpy=                  0.064418
 Thermal correction to Gibbs Free Energy=         0.016645
 Sum of electronic and zero-point Energies=          -1199.887340
 Sum of electronic and thermal Energies=             -1199.877092
 Sum of electronic and thermal Enthalpies=           -1199.876148
 Sum of electronic and thermal Free Energies=        -1199.923921

                     E (Thermal)             CV                S
                      KCal/Mol        Cal/Mol-Kelvin    Cal/Mol-Kelvin
 Total                   39.830             35.979            100.546
 Electronic               0.000              0.000              0.000
 Translational            0.889              2.981             41.783
 Rotational               0.889              2.981             30.062
 Vibrational             38.053             30.018             28.701
 Vibration     1          0.595              1.979              4.949
 Vibration     2          0.598              1.967              4.101
 Vibration     3          0.613              1.918              2.872
 Vibration     4          0.635              1.850              2.200
 Vibration     5          0.648              1.806              1.936
 Vibration     6          0.658              1.776              1.790
 Vibration     7          0.684              1.698              1.494
 Vibration     8          0.703              1.644              1.334
 Vibration     9          0.708              1.629              1.294
 Vibration    10          0.731              1.564              1.143
 Vibration    11          0.749              1.514              1.041
 Vibration    12          0.806              1.368              0.805
 Vibration    13          0.830              1.308              0.727
 Vibration    14          0.884              1.185              0.589
 Vibration    15          0.898              1.155              0.559
 Vibration    16          0.969              1.011              0.433

 Optimization completed.
    -- Stationary point found.
 Normal termination of Gaussian 16 at Sat May 24 05:26:58 2025.
