 Gaussian 16, Revision C.01,
 Gaussian 16:  ES64L-G16RevC.01  3-Jul-2019

 ----------------------------------------------------------------------
 #P M062X/Def2TZVPP Symm(None) scf(xqc) pop(None) freq opt(CalcFC, Tigh
 t)
 ----------------------------------------------------------------------

 ------------------------------
 Gaussian input prepared by ASE
 ------------------------------
 Symbolic Z-matrix:
 Charge =  0 Multiplicity = 1

 SCF Done:  E(RM062X) =  -1199.84358075     A.U. after   14 cycles
 SCF Done:  E(RM062X) =  -1199.84358081     A.U. after    6 cycles
 Optimization completed.
    -- Stationary point found.
 Normal termination of Gaussian 16 at Sat May 24 05:52:51 2025.

 ---------------------------------------------------------------------
 #P Geom=AllCheck Guess=TCheck SCRF=Check GenChk RM062X/def2TZVPP Freq
 ---------------------------------------------------------------------

 Structure from the checkpoint file:  "2004328380979804780401_well.chk"
 ------------------------------
 Gaussian input prepared by ASE
 ------------------------------
 Charge =  0 Multiplicity = 1

                          Input orientation:
 ---------------------------------------------------------------------
 Center     Atomic      Atomic             Coordinates (Angstroms)
 Number     Number       Type             X           Y           Z
 ---------------------------------------------------------------------
      1          6           0       -0.808907   -0.481045    0.763149
      2          6           0       -0.751434    0.480507   -0.477318
      3          9           0       -1.356976    0.042456   -1.550832
      4          9           0       -1.142680    1.705328   -0.229412
      5         16           0        1.138403    0.118661   -0.320382
      6          8           0        0.547684   -0.751510    0.926239
      7          8           0        2.543761   -0.003150   -0.570698
      8          8           0        1.204921    1.552703    0.472637
      9          9           0        0.764710   -1.101499   -1.384320
     10          9           0       -1.301748    0.109285    1.838908
     11          9           0       -1.490613   -1.587027    0.527431
     12          1           0        2.121531    1.714447    0.728027
 ---------------------------------------------------------------------

 SCF Done:  E(RM062X) =  -1199.84358081     A.U. after    1 cycles

 Isotropic polarizability for W=    0.000000       56.20 Bohr**3.
 End of Minotr F.D. properties file   721 does not exist.

                      1                      2                      3
                      A                      A                      A
 Frequencies --     61.4079               106.8398               206.3206
 Red. masses --     13.3521                15.1179                18.7508
 Frc consts  --      0.0297                 0.1017                 0.4703
 IR Inten    --      0.9558                 0.3589                 0.2757

                      4                      5                      6
                      A                      A                      A
 Frequencies --    250.2593               275.0545               284.9308
 Red. masses --     16.9789                16.8427                15.2858
 Frc consts  --      0.6265                 0.7508                 0.7312
 IR Inten    --      0.3108                 2.4353                 2.5153

                      7                      8                      9
                      A                      A                      A
 Frequencies --    304.1620               353.0106               375.2616
 Red. masses --      7.5462                14.3648                 6.5590
 Frc consts  --      0.4113                 1.0547                 0.5442
 IR Inten    --      3.9502                 5.5090                 7.7301

                     10                     11                     12
                      A                      A                      A
 Frequencies --    445.8048               475.7337               500.8749
 Red. masses --      1.7497                11.7903                14.4600
 Frc consts  --      0.2049                 1.5722                 2.1374
 IR Inten    --     27.4016                 1.8948                40.1867

                     13                     14                     15
                      A                      A                      A
 Frequencies --    539.2347               585.1863               604.4053
 Red. masses --      4.1082                15.6380                10.5629
 Frc consts  --      0.7038                 3.1551                 2.2735
 IR Inten    --     80.4045                49.1543                 9.8114

                     16                     17                     18
                      A                      A                      A
 Frequencies --    635.9464               642.3797               656.9745
 Red. masses --     16.7690                10.9410                11.9803
 Frc consts  --      3.9958                 2.6601                 3.0466
 IR Inten    --      3.5771                29.3074                28.0774

                     19                     20                     21
                      A                      A                      A
 Frequencies --    742.9222               794.8794               852.9790
 Red. masses --     15.8674                20.3503                16.3244
 Frc consts  --      5.1599                 7.5757                 6.9979
 IR Inten    --      7.2730               405.6642               118.9517

                     22                     23                     24
                      A                      A                      A
 Frequencies --    903.6946              1121.4764              1164.0487
 Red. masses --     13.2091                 2.4184                 2.5792
 Frc consts  --      6.3558                 1.7921                 2.0591
 IR Inten    --    140.6228               122.7293               175.1099

                     25                     26                     27
                      A                      A                      A
 Frequencies --   1263.2314              1306.9268              1325.1432
 Red. masses --     10.1877                13.2287                 8.9855
 Frc consts  --      9.5784                13.3128                 9.2965
 IR Inten    --    187.5265               304.4325               333.0691

                     28                     29                     30
                      A                      A                      A
 Frequencies --   1360.8979              1404.1335              3840.7444
 Red. masses --     10.9168                11.8731                 1.0657
 Frc consts  --     11.9123                13.7922                 9.2623
 IR Inten    --    134.6285               125.6823               159.9021

 - Thermochemistry -
 -------------------
 Temperature   298.150 Kelvin.  Pressure   1.00000 Atm.
 Atom     1 has atomic number  6 and mass  12.00000

 Molecular mass:   199.95666 amu.
 Principal axes and moments of inertia in atomic units:
                           1         2         3
     Eigenvalues --  1255.253231869.451211936.79494
           X            0.94658   0.05670   0.31743
           Y            0.10343   0.87902  -0.46544
           Z           -0.30542   0.47341   0.82620
 This molecule is an asymmetric top.
 Rotational symmetry number  1.
 Warning -- assumption of classical behavior for rotation
           may cause significant error
 Rotational temperatures (Kelvin)      0.06900     0.04633     0.04472
 Rotational constants (GHZ):           1.43775     0.96539     0.93182
 Zero-point vibrational energy     139872.6 (Joules/Mol)
                                   33.43034 (Kcal/Mol)
 Warning -- explicit consideration of  15 degrees of freedom as
           vibrations may cause significant error
 Vibrational temperatures:     88.35   153.72   296.85   360.07   395.74
          (Kelvin)            409.95   437.62   507.90   539.92   641.41
                              684.47   720.65   775.84   841.95   869.60
                              914.99   924.24   945.24  1068.90  1143.65
                             1227.25  1300.21  1613.55  1674.81  1817.51
                             1880.38  1906.59  1958.03  2020.23  5525.97

 Zero-point correction=                           0.053275 (Hartree/Particle)
 Thermal correction to Energy=                    0.062729
 Thermal correction to Enthalpy=                  0.063673
 Thermal correction to Gibbs Free Energy=         0.018200
 Sum of electronic and zero-point Energies=          -1199.790306
 Sum of electronic and thermal Energies=             -1199.780852
 Sum of electronic and thermal Enthalpies=           -1199.779908
 Sum of electronic and thermal Free Energies=        -1199.825381

                     E (Thermal)             CV                S
                      KCal/Mol        Cal/Mol-Kelvin    Cal/Mol-Kelvin
 Total                   39.363             35.271             95.706
 Electronic               0.000              0.000              0.000
 Translational            0.889              2.981             41.783
 Rotational               0.889              2.981             29.898
 Vibrational             37.585             29.309             24.024
 Vibration     1          0.597              1.973              4.411
 Vibration     2          0.606              1.944              3.326
 Vibration     3          0.641              1.831              2.076
 Vibration     4          0.663              1.762              1.729
 Vibration     5          0.677              1.719              1.564
 Vibration     6          0.683              1.702              1.504
 Vibration     7          0.695              1.666              1.394
 Vibration     8          0.729              1.569              1.153
 Vibration     9          0.746              1.523              1.058
 Vibration    10          0.805              1.370              0.809
 Vibration    11          0.832              1.304              0.722
 Vibration    12          0.856              1.248              0.656
 Vibration    13          0.894              1.163              0.567
 Vibration    14          0.942              1.063              0.476
 Vibration    15          0.963              1.022              0.442

 Optimization completed.
    -- Stationary point found.
 Normal termination of Gaussian 16 at Sat May 24 05:57:48 2025.
