 Gaussian 16, Revision C.01,
 Gaussian 16:  ES64L-G16RevC.01  3-Jul-2019

 ----------------------------------------------------------------------
 #P M062X/Def2TZVPP Symm(None) scf(xqc) pop(None) freq opt(CalcFC, Tigh
 t)
 ----------------------------------------------------------------------

 ------------------------------
 Gaussian input prepared by ASE
 ------------------------------
 Symbolic Z-matrix:
 Charge =  0 Multiplicity = 1

 SCF Done:  E(RM062X) =  -1199.77872620     A.U. after   15 cycles
 SCF Done:  E(RM062X) =  -1199.77872621     A.U. after    7 cycles
 Optimization completed.
    -- Stationary point found.
 Normal termination of Gaussian 16 at Sat May 24 06:16:57 2025.

 ---------------------------------------------------------------------
 #P Geom=AllCheck Guess=TCheck SCRF=Check GenChk RM062X/def2TZVPP Freq
 ---------------------------------------------------------------------

 Structure from the checkpoint file:  "2004167628425982700001_well.chk"
 ------------------------------
 Gaussian input prepared by ASE
 ------------------------------
 Charge =  0 Multiplicity = 1

                          Input orientation:
 ---------------------------------------------------------------------
 Center     Atomic      Atomic             Coordinates (Angstroms)
 Number     Number       Type             X           Y           Z
 ---------------------------------------------------------------------
      1          6           0       -1.096235   -0.573060    0.744594
      2          6           0       -0.636169    0.390602   -0.367669
      3          9           0       -1.047664   -0.105095   -1.546478
      4          9           0       -1.229353    1.579292   -0.173253
      5         16           0        1.211467    0.760788   -0.629910
      6          8           0        1.626236   -0.670523   -1.086190
      7          8           0        2.861861    0.128621   -0.828233
      8          8           0        1.375775    0.908506    0.951015
      9          9           0       -0.359514   -1.676308    0.727399
     10          9           0       -1.003257   -0.006511    1.936602
     11          9           0       -2.365845   -0.909474    0.540945
     12          1           0        2.316721    1.005787    1.151837
 ---------------------------------------------------------------------

 SCF Done:  E(RM062X) =  -1199.77872621     A.U. after    1 cycles

 Isotropic polarizability for W=    0.000000       58.19 Bohr**3.
 End of Minotr F.D. properties file   721 does not exist.

                      1                      2                      3
                      A                      A                      A
 Frequencies --     35.0520                76.0615               125.9817
 Red. masses --     12.7582                15.7760                13.9722
 Frc consts  --      0.0092                 0.0538                 0.1307
 IR Inten    --      0.7358                 0.9218                 0.1613

                      4                      5                      6
                      A                      A                      A
 Frequencies --    167.4488               210.5856               228.1992
 Red. masses --     14.6243                11.2507                17.8761
 Frc consts  --      0.2416                 0.2940                 0.5485
 IR Inten    --      3.1455                 4.9492                 1.5406

                      7                      8                      9
                      A                      A                      A
 Frequencies --    272.9933               290.9878               326.2955
 Red. masses --     10.5427                15.8622                11.8305
 Frc consts  --      0.4629                 0.7913                 0.7421
 IR Inten    --      1.7499                 1.0105                 1.4008

                     10                     11                     12
                      A                      A                      A
 Frequencies --    357.9754               375.1409               423.4566
 Red. masses --      4.6346                 2.1512                15.1603
 Frc consts  --      0.3499                 0.1784                 1.6017
 IR Inten    --     15.1841                65.0410                42.9644

                     13                     14                     15
                      A                      A                      A
 Frequencies --    449.9518               458.1593               489.3194
 Red. masses --     15.4613                 8.0058                 3.5972
 Frc consts  --      1.8443                 0.9901                 0.5075
 IR Inten    --     53.6847               147.7463                47.5292

                     16                     17                     18
                      A                      A                      A
 Frequencies --    547.2022               603.4408               650.3600
 Red. masses --     17.7673                17.6411                16.3988
 Frc consts  --      3.1345                 3.7848                 4.0867
 IR Inten    --      3.8084                 1.8878                 4.1889

                     19                     20                     21
                      A                      A                      A
 Frequencies --    771.7452               875.3211               907.5235
 Red. masses --     16.8637                17.4720                17.2231
 Frc consts  --      5.9177                 7.8873                 8.3575
 IR Inten    --     14.1346                64.8364                65.4129

                     22                     23                     24
                      A                      A                      A
 Frequencies --   1021.1824              1067.3705              1185.5224
 Red. masses --      9.4093                14.0624                 3.7413
 Frc consts  --      5.7812                 9.4393                 3.0981
 IR Inten    --     57.5675                67.8155                96.5659

                     25                     26                     27
                      A                      A                      A
 Frequencies --   1193.3922              1230.1452              1273.0252
 Red. masses --      1.7454                 8.1755                12.4610
 Frc consts  --      1.4646                 7.2892                11.8981
 IR Inten    --    220.4291                91.0246               233.7990

                     28                     29                     30
                      A                      A                      A
 Frequencies --   1295.6157              1376.4254              3819.5347
 Red. masses --     13.1443                12.1704                 1.0651
 Frc consts  --     12.9999                13.5850                 9.1552
 IR Inten    --    278.3067               189.3934               175.2914

 - Thermochemistry -
 -------------------
 Temperature   298.150 Kelvin.  Pressure   1.00000 Atm.
 Atom     1 has atomic number  6 and mass  12.00000

 Molecular mass:   199.95666 amu.
 Principal axes and moments of inertia in atomic units:
                           1         2         3
     Eigenvalues --  1105.518012316.802182394.81776
           X            0.91979   0.39214  -0.01449
           Y            0.19934  -0.43513   0.87802
           Z           -0.33801   0.81048   0.47840
 This molecule is an asymmetric top.
 Rotational symmetry number  1.
 Warning -- assumption of classical behavior for rotation
           may cause significant error
 Rotational temperatures (Kelvin)      0.07835     0.03739     0.03617
 Rotational constants (GHZ):           1.63248     0.77898     0.75360
 Zero-point vibrational energy     132219.7 (Joules/Mol)
                                   31.60128 (Kcal/Mol)
 Warning -- explicit consideration of  17 degrees of freedom as
           vibrations may cause significant error
 Vibrational temperatures:     50.43   109.44   181.26   240.92   302.99
          (Kelvin)            328.33   392.78   418.67   469.47   515.05
                              539.74   609.26   647.38   659.19   704.02
                              787.30   868.22   935.72  1110.37  1259.39
                             1305.72  1469.25  1535.71  1705.70  1717.03
                             1769.90  1831.60  1864.10  1980.37  5495.46

 Zero-point correction=                           0.050360 (Hartree/Particle)
 Thermal correction to Energy=                    0.061031
 Thermal correction to Enthalpy=                  0.061975
 Thermal correction to Gibbs Free Energy=         0.013140
 Sum of electronic and zero-point Energies=          -1199.728366
 Sum of electronic and thermal Energies=             -1199.717695
 Sum of electronic and thermal Enthalpies=           -1199.716751
 Sum of electronic and thermal Free Energies=        -1199.765586

                     E (Thermal)             CV                S
                      KCal/Mol        Cal/Mol-Kelvin    Cal/Mol-Kelvin
 Total                   38.297             37.377            102.782
 Electronic               0.000              0.000              0.000
 Translational            0.889              2.981             41.783
 Rotational               0.889              2.981             30.196
 Vibrational             36.520             31.415             30.803
 Vibration     1          0.594              1.982              5.521
 Vibration     2          0.599              1.965              3.990
 Vibration     3          0.611              1.927              3.006
 Vibration     4          0.624              1.883              2.464
 Vibration     5          0.643              1.825              2.039
 Vibration     6          0.651              1.798              1.893
 Vibration     7          0.676              1.723              1.577
 Vibration     8          0.687              1.691              1.468
 Vibration     9          0.710              1.623              1.278
 Vibration    10          0.733              1.559              1.131
 Vibration    11          0.746              1.523              1.059
 Vibration    12          0.786              1.419              0.880
 Vibration    13          0.809              1.361              0.796
 Vibration    14          0.816              1.343              0.771
 Vibration    15          0.845              1.274              0.685
 Vibration    16          0.902              1.146              0.550
 Vibration    17          0.962              1.024              0.444

 Optimization completed.
    -- Stationary point found.
 Normal termination of Gaussian 16 at Sat May 24 06:21:31 2025.
