 Gaussian 16, Revision C.01,
 Gaussian 16:  ES64L-G16RevC.01  3-Jul-2019

 ----------------------------------------------------------------------
 #P M062X/Def2TZVPP Symm(None) scf(xqc) pop(None) freq opt(CalcFC, Tigh
 t)
 ----------------------------------------------------------------------

 ------------------------------
 Gaussian input prepared by ASE
 ------------------------------
 Symbolic Z-matrix:
 Charge =  0 Multiplicity = 1

 SCF Done:  E(RM062X) =  -237.723259474     A.U. after   12 cycles
 SCF Done:  E(RM062X) =  -237.723263511     A.U. after    8 cycles
 Optimization completed.
    -- Stationary point found.
 Normal termination of Gaussian 16 at Sat May 24 06:11:27 2025.

 ---------------------------------------------------------------------
 #P Geom=AllCheck Guess=TCheck SCRF=Check GenChk RM062X/def2TZVPP Freq
 ---------------------------------------------------------------------

 Structure from the checkpoint file:  "500620380000000000001_well.chk"
 ------------------------------
 Gaussian input prepared by ASE
 ------------------------------
 Charge =  0 Multiplicity = 1

                          Input orientation:
 ---------------------------------------------------------------------
 Center     Atomic      Atomic             Coordinates (Angstroms)
 Number     Number       Type             X           Y           Z
 ---------------------------------------------------------------------
      1          6           0       -2.961631   -0.873153    0.739049
      2          9           0       -4.075157   -1.234767    1.289345
      3          9           0       -2.959570   -1.468551   -0.409414
 ---------------------------------------------------------------------

 SCF Done:  E(RM062X) =  -237.723263511     A.U. after    1 cycles

 Isotropic polarizability for W=    0.000000       14.29 Bohr**3.
 End of Minotr F.D. properties file   721 does not exist.

                      1                      2                      3
                      A                      A                      A
 Frequencies --    692.1382              1181.8977              1286.3075
 Red. masses --     17.7024                13.6929                13.8673
 Frc consts  --      4.9965                11.2695                13.5186
 IR Inten    --      4.4566               395.0553               129.6794

 - Thermochemistry -
 -------------------
 Temperature   298.150 Kelvin.  Pressure   1.00000 Atm.
 Atom     1 has atomic number  6 and mass  12.00000

 Molecular mass:    49.99681 amu.
 Principal axes and moments of inertia in atomic units:
                           1         2         3
     Eigenvalues --    20.42817 141.96372 162.39188
           X           -0.54533   0.70167  -0.45855
           Y            0.11428   0.60418   0.78861
           Z            0.83040   0.37765  -0.40966
 This molecule is an asymmetric top.
 Rotational symmetry number  1.
 Rotational temperatures (Kelvin)      4.23993     0.61011     0.53336
 Rotational constants (GHZ):          88.34573    12.71269    11.11349
 Zero-point vibrational energy      18903.1 (Joules/Mol)
                                    4.51794 (Kcal/Mol)
 Vibrational temperatures:    995.83  1700.49  1850.71
          (Kelvin)

 Zero-point correction=                           0.007200 (Hartree/Particle)
 Thermal correction to Energy=                    0.010178
 Thermal correction to Enthalpy=                  0.011122
 Thermal correction to Gibbs Free Energy=        -0.016826
 Sum of electronic and zero-point Energies=           -237.716064
 Sum of electronic and thermal Energies=              -237.713085
 Sum of electronic and thermal Enthalpies=            -237.712141
 Sum of electronic and thermal Free Energies=         -237.740090

                     E (Thermal)             CV                S
                      KCal/Mol        Cal/Mol-Kelvin    Cal/Mol-Kelvin
 Total                    6.387              7.178             58.822
 Electronic               0.000              0.000              0.000
 Translational            0.889              2.981             37.652
 Rotational               0.889              2.981             20.782
 Vibrational              4.609              1.216              0.389

 Optimization completed.
    -- Stationary point found.
 Normal termination of Gaussian 16 at Sat May 24 06:11:34 2025.
