 Gaussian 16, Revision C.01,
 Gaussian 16:  ES64L-G16RevC.01  3-Jul-2019

 ----------------------------------------------------------------------
 #P M062X/Def2TZVPP Symm(None) scf(xqc) pop(None) freq opt(CalcFC, Tigh
 t)
 ----------------------------------------------------------------------

 ------------------------------
 Gaussian input prepared by ASE
 ------------------------------
 Symbolic Z-matrix:
 Charge =  0 Multiplicity = 1

 SCF Done:  E(RM062X) =  -548.626727538     A.U. after   15 cycles
 SCF Done:  E(RM062X) =  -548.626805318     A.U. after   10 cycles
 SCF Done:  E(RM062X) =  -548.626805333     A.U. after    6 cycles
 Optimization completed.
    -- Stationary point found.
 Normal termination of Gaussian 16 at Sat May 24 10:45:09 2025.

 ---------------------------------------------------------------------
 #P Geom=AllCheck Guess=TCheck SCRF=Check GenChk RM062X/def2TZVPP Freq
 ---------------------------------------------------------------------

 Structure from the checkpoint file:  "640960320000000000001_well.chk"
 ------------------------------
 Gaussian input prepared by ASE
 ------------------------------
 Charge =  0 Multiplicity = 1

                          Input orientation:
 ---------------------------------------------------------------------
 Center     Atomic      Atomic             Coordinates (Angstroms)
 Number     Number       Type             X           Y           Z
 ---------------------------------------------------------------------
      1         16           0        1.595697    1.032006   -1.294950
      2          8           0        2.174309    0.942191    0.003801
      3          8           0        1.413286    2.319970   -1.875886
 ---------------------------------------------------------------------

 SCF Done:  E(RM062X) =  -548.626805333     A.U. after    1 cycles

 Isotropic polarizability for W=    0.000000       21.13 Bohr**3.
 End of Minotr F.D. properties file   721 does not exist.

                      1                      2                      3
                      A                      A                      A
 Frequencies --    544.2591              1256.1601              1454.9023
 Red. masses --     18.6175                17.9529                20.3149
 Frc consts  --      3.2493                16.6907                25.3357
 IR Inten    --     35.4073                40.5450               260.6158

 - Thermochemistry -
 -------------------
 Temperature   298.150 Kelvin.  Pressure   1.00000 Atm.
 Atom     1 has atomic number 16 and mass  31.97207

 Molecular mass:    63.96190 amu.
 Principal axes and moments of inertia in atomic units:
                           1         2         3
     Eigenvalues --    30.09035 171.66096 201.75131
           X            0.31041   0.27290   0.91059
           Y           -0.56198   0.82527  -0.05576
           Z            0.76670   0.49442  -0.40954
 This molecule is an asymmetric top.
 Rotational symmetry number  1.
 Rotational temperatures (Kelvin)      2.87846     0.50456     0.42931
 Rotational constants (GHZ):          59.97740    10.51340     8.94538
 Zero-point vibrational energy      19471.1 (Joules/Mol)
                                    4.65372 (Kcal/Mol)
 Warning -- explicit consideration of   1 degrees of freedom as
           vibrations may cause significant error
 Vibrational temperatures:    783.07  1807.33  2093.28
          (Kelvin)

 Zero-point correction=                           0.007416 (Hartree/Particle)
 Thermal correction to Energy=                    0.010461
 Thermal correction to Enthalpy=                  0.011406
 Thermal correction to Gibbs Free Energy=        -0.017369
 Sum of electronic and zero-point Energies=           -548.619389
 Sum of electronic and thermal Energies=              -548.616344
 Sum of electronic and thermal Enthalpies=            -548.615400
 Sum of electronic and thermal Free Energies=         -548.644174

                     E (Thermal)             CV                S
                      KCal/Mol        Cal/Mol-Kelvin    Cal/Mol-Kelvin
 Total                    6.565              7.372             60.560
 Electronic               0.000              0.000              0.000
 Translational            0.889              2.981             38.386
 Rotational               0.889              2.981             21.571
 Vibrational              4.787              1.411              0.603
 Vibration     1          0.899              1.152              0.556

 Optimization completed.
    -- Stationary point found.
 Normal termination of Gaussian 16 at Sat May 24 10:45:16 2025.
