 Gaussian 16, Revision C.01,
 Gaussian 16:  ES64L-G16RevC.01  3-Jul-2019

 ----------------------------------------------------------------------
 #P M062X/Def2TZVPP Symm(None) scf(xqc) pop(None) freq opt(CalcFC, Tigh
 t)
 ----------------------------------------------------------------------

 ------------------------------
 Gaussian input prepared by ASE
 ------------------------------
 Symbolic Z-matrix:
 Charge =  0 Multiplicity = 2

 SCF Done:  E(UM062X) =  -624.411155960     A.U. after   17 cycles
 SCF Done:  E(UM062X) =  -624.413400986     A.U. after   17 cycles
 SCF Done:  E(UM062X) =  -624.413415145     A.U. after   12 cycles
 SCF Done:  E(UM062X) =  -624.413415301     A.U. after   11 cycles
 SCF Done:  E(UM062X) =  -624.413415302     A.U. after    5 cycles
 Optimization completed.
    -- Stationary point found.
 Normal termination of Gaussian 16 at Sat May 24 00:13:21 2025.

 ---------------------------------------------------------------------
 #P Geom=AllCheck Guess=TCheck SCRF=Check GenChk UM062X/def2TZVPP Freq
 ---------------------------------------------------------------------

 Structure from the checkpoint file:  "811611290340000000002_well.chk"
 ------------------------------
 Gaussian input prepared by ASE
 ------------------------------
 Charge =  0 Multiplicity = 2

                          Input orientation:
 ---------------------------------------------------------------------
 Center     Atomic      Atomic             Coordinates (Angstroms)
 Number     Number       Type             X           Y           Z
 ---------------------------------------------------------------------
      1         16           0        1.875544   -0.039111    0.254775
      2          8           0        2.232848   -0.229646    1.627905
      3          8           0        2.387859   -0.866516   -0.806061
      4          8           0        2.247733    1.482376   -0.088429
      5          1           0        2.343981    1.570706   -1.047434
 ---------------------------------------------------------------------

 SCF Done:  E(UM062X) =  -624.413415302     A.U. after    1 cycles

 Isotropic polarizability for W=    0.000000       28.47 Bohr**3.
 End of Minotr F.D. properties file   721 does not exist.

                      1                      2                      3
                      A                      A                      A
 Frequencies --    291.0159               437.2331               446.6108
 Red. masses --      1.2980                 3.3987                15.1949
 Frc consts  --      0.0648                 0.3828                 1.7857
 IR Inten    --     97.8247                30.3742                16.8430

                      4                      5                      6
                      A                      A                      A
 Frequencies --    552.8271               827.7064              1123.4462
 Red. masses --     20.3691                17.0359                 1.1789
 Frc consts  --      3.6678                 6.8765                 0.8767
 IR Inten    --     34.7550               172.0978                80.3949

                      7                      8                      9
                      A                      A                      A
 Frequencies --   1158.7030              1371.6781              3812.5399
 Red. masses --     17.9467                12.5691                 1.0660
 Frc consts  --     14.1964                13.9334                 9.1289
 IR Inten    --     89.9065               182.5218               166.8701

 - Thermochemistry -
 -------------------
 Temperature   298.150 Kelvin.  Pressure   1.00000 Atm.
 Atom     1 has atomic number 16 and mass  31.97207

 Molecular mass:    80.96464 amu.
 Principal axes and moments of inertia in atomic units:
                           1         2         3
     Eigenvalues --   190.41936 197.63352 363.97020
           X           -0.06001  -0.02217   0.99795
           Y           -0.18287   0.98308   0.01084
           Z            0.98130   0.18184   0.06305
 This molecule is an asymmetric top.
 Rotational symmetry number  1.
 Rotational temperatures (Kelvin)      0.45486     0.43826     0.23797
 Rotational constants (GHZ):           9.47772     9.13176     4.95849
 Zero-point vibrational energy      59943.4 (Joules/Mol)
                                   14.32683 (Kcal/Mol)
 Warning -- explicit consideration of   4 degrees of freedom as
           vibrations may cause significant error
 Vibrational temperatures:    418.71   629.08   642.57   795.39  1190.88
          (Kelvin)           1616.39  1667.12  1973.54  5485.39

 Zero-point correction=                           0.022831 (Hartree/Particle)
 Thermal correction to Energy=                    0.026946
 Thermal correction to Enthalpy=                  0.027891
 Thermal correction to Gibbs Free Energy=        -0.004683
 Sum of electronic and zero-point Energies=           -624.390584
 Sum of electronic and thermal Energies=              -624.386469
 Sum of electronic and thermal Enthalpies=            -624.385525
 Sum of electronic and thermal Free Energies=         -624.418098

                     E (Thermal)             CV                S
                      KCal/Mol        Cal/Mol-Kelvin    Cal/Mol-Kelvin
 Total                   16.909             12.760             68.556
 Electronic               0.000              0.000              1.377
 Translational            0.889              2.981             39.089
 Rotational               0.889              2.981             24.130
 Vibrational             15.132              6.798              3.960
 Vibration     1          0.687              1.690              1.468
 Vibration     2          0.798              1.389              0.835
 Vibration     3          0.806              1.368              0.806
 Vibration     4          0.908              1.134              0.538

 Optimization completed.
    -- Stationary point found.
 Normal termination of Gaussian 16 at Sat May 24 00:13:49 2025.
